MODEL 1
REMARK VINA RESULT:   -12.379      0.000      0.000
REMARK INTER + INTRA:         -17.386
REMARK INTER:                 -17.444
REMARK INTRA:                   0.058
REMARK UNBOUND:                 0.058
REMARK SMILES Cc1ccc(NC(=O)c2ccc(C[N@H+]3CC[N@H+](C)CC3)cc2)cc1Nc1nccc(-c2cccnc2)n1
REMARK SMILES IDX 7 1 6 2 8 3 9 5 12 6 11 7 21 8 10 9 22 10 13 11 14 12 16 13
REMARK SMILES IDX 17 14 15 15 19 16 20 17 18 18 5 21 23 22 4 23 24 24 3 25
REMARK SMILES IDX 2 26 1 27 25 28 26 30 27 31 37 32 28 33 30 34 29 35 31 36
REMARK SMILES IDX 36 37 32 38 35 39 33 40 34 41
REMARK H PARENT 6 4 17 19 14 20 25 29
ROOT
ATOM      1  C   UNL     1      15.662  51.952  15.408  1.00  0.00    +0.255 C 
ATOM      2  N   UNL     1      16.236  51.762  14.170  1.00  0.00    -0.322 N 
ATOM      3  O   UNL     1      15.225  52.989  15.889  1.00  0.00    -0.269 OA
ATOM      4  H   UNL     1      16.434  50.814  13.876  1.00  0.00    +0.170 HD
ENDROOT
BRANCH   1   5
ATOM      5  C   UNL     1      15.557  50.733  16.250  1.00  0.00    +0.040 A 
ATOM      6  C   UNL     1      15.331  48.572  18.032  1.00  0.00    +0.006 A 
ATOM      7  C   UNL     1      14.234  49.415  17.795  1.00  0.00    +0.010 A 
ATOM      8  C   UNL     1      16.533  48.803  17.339  1.00  0.00    +0.010 A 
ATOM      9  C   UNL     1      14.352  50.494  16.919  1.00  0.00    +0.014 A 
ATOM     10  C   UNL     1      16.647  49.881  16.454  1.00  0.00    +0.014 A 
BRANCH   6  11
ATOM     11  C   UNL     1      15.233  47.476  19.058  1.00  0.00    +0.299 C 
BRANCH  11  12
ATOM     12  N   UNL     1      16.039  47.763  20.323  1.00  0.00    -0.322 N 
ATOM     13  C   UNL     1      16.715  45.453  21.172  1.00  0.00    +0.324 C 
ATOM     14  N   UNL     1      18.178  45.769  20.868  1.00  0.00    -0.328 N 
ATOM     15  C   UNL     1      15.895  46.735  21.449  1.00  0.00    +0.324 C 
ATOM     16  C   UNL     1      18.348  46.820  19.773  1.00  0.00    +0.324 C 
ATOM     17  C   UNL     1      17.502  48.092  20.040  1.00  0.00    +0.324 C 
ATOM     18  C   UNL     1      19.009  46.040  22.104  1.00  0.00    +0.333 C 
ATOM     19  H   UNL     1      18.583  44.894  20.490  1.00  0.00    +0.348 HD
ATOM     20  H   UNL     1      15.610  48.628  20.690  1.00  0.00    +0.348 HD
ENDBRANCH  11  12
ENDBRANCH   6  11
ENDBRANCH   1   5
BRANCH   2  21
ATOM     21  C   UNL     1      16.508  52.750  13.196  1.00  0.00    +0.043 A 
ATOM     22  C   UNL     1      15.703  53.901  13.211  1.00  0.00    +0.052 A 
ATOM     23  C   UNL     1      17.505  52.638  12.235  1.00  0.00    +0.026 A 
ATOM     24  C   UNL     1      15.878  54.950  12.293  1.00  0.00    +0.046 A 
ATOM     25  C   UNL     1      17.693  53.658  11.303  1.00  0.00    +0.008 A 
ATOM     26  C   UNL     1      16.888  54.809  11.316  1.00  0.00    -0.027 A 
ATOM     27  C   UNL     1      17.143  55.869  10.276  1.00  0.00    +0.046 C 
BRANCH  24  28
ATOM     28  N   UNL     1      15.064  56.093  12.295  1.00  0.00    -0.324 N 
ATOM     29  H   UNL     1      14.161  56.014  11.850  1.00  0.00    +0.170 HD
BRANCH  28  30
ATOM     30  C   UNL     1      15.240  57.427  12.655  1.00  0.00    +0.227 A 
ATOM     31  N   UNL     1      16.382  57.887  13.186  1.00  0.00    -0.221 NA
ATOM     32  N   UNL     1      14.169  58.205  12.434  1.00  0.00    -0.213 NA
ATOM     33  C   UNL     1      16.426  59.193  13.497  1.00  0.00    +0.117 A 
ATOM     34  C   UNL     1      14.240  59.519  12.743  1.00  0.00    +0.077 A 
ATOM     35  C   UNL     1      15.382  60.061  13.295  1.00  0.00    +0.049 A 
BRANCH  34  36
ATOM     36  C   UNL     1      13.028  60.307  12.461  1.00  0.00    +0.019 A 
ATOM     37  C   UNL     1      11.911  59.773  11.814  1.00  0.00    +0.121 A 
ATOM     38  C   UNL     1      12.919  61.655  12.838  1.00  0.00    +0.013 A 
ATOM     39  N   UNL     1      10.777  60.455  11.518  1.00  0.00    -0.264 NA
ATOM     40  C   UNL     1      11.765  62.386  12.555  1.00  0.00    +0.021 A 
ATOM     41  C   UNL     1      10.730  61.747  11.897  1.00  0.00    +0.111 A 
ENDBRANCH  34  36
ENDBRANCH  28  30
ENDBRANCH  24  28
ENDBRANCH   2  21
TORSDOF 7
ENDMDL
MODEL 2
REMARK VINA RESULT:    -9.827      3.238     12.141
REMARK INTER + INTRA:         -13.790
REMARK INTER:                 -13.339
REMARK INTRA:                  -0.451
REMARK UNBOUND:                 0.058
REMARK SMILES Cc1ccc(NC(=O)c2ccc(C[N@H+]3CC[N@H+](C)CC3)cc2)cc1Nc1nccc(-c2cccnc2)n1
REMARK SMILES IDX 7 1 6 2 8 3 9 5 12 6 11 7 21 8 10 9 22 10 13 11 14 12 16 13
REMARK SMILES IDX 17 14 15 15 19 16 20 17 18 18 5 21 23 22 4 23 24 24 3 25
REMARK SMILES IDX 2 26 1 27 25 28 26 30 27 31 37 32 28 33 30 34 29 35 31 36
REMARK SMILES IDX 36 37 32 38 35 39 33 40 34 41
REMARK H PARENT 6 4 17 19 14 20 25 29
ROOT
ATOM      1  C   UNL     1      16.061  52.615  14.802  1.00  0.00    +0.255 C 
ATOM      2  N   UNL     1      15.045  52.085  15.567  1.00  0.00    -0.322 N 
ATOM      3  O   UNL     1      17.195  52.182  14.643  1.00  0.00    -0.269 OA
ATOM      4  H   UNL     1      14.125  52.501  15.493  1.00  0.00    +0.170 HD
ENDROOT
BRANCH   1   5
ATOM      5  C   UNL     1      15.720  53.865  14.075  1.00  0.00    +0.040 A 
ATOM      6  C   UNL     1      15.141  56.349  12.896  1.00  0.00    +0.006 A 
ATOM      7  C   UNL     1      16.464  56.001  13.206  1.00  0.00    +0.010 A 
ATOM      8  C   UNL     1      14.113  55.423  13.151  1.00  0.00    +0.010 A 
ATOM      9  C   UNL     1      16.748  54.773  13.803  1.00  0.00    +0.014 A 
ATOM     10  C   UNL     1      14.401  54.187  13.741  1.00  0.00    +0.014 A 
BRANCH   6  11
ATOM     11  C   UNL     1      14.826  57.716  12.354  1.00  0.00    +0.299 C 
BRANCH  11  12
ATOM     12  N   UNL     1      13.547  58.314  12.936  1.00  0.00    -0.322 N 
ATOM     13  C   UNL     1      13.891  60.836  12.745  1.00  0.00    +0.324 C 
ATOM     14  N   UNL     1      12.767  60.912  11.714  1.00  0.00    -0.328 N 
ATOM     15  C   UNL     1      13.717  59.631  13.699  1.00  0.00    +0.324 C 
ATOM     16  C   UNL     1      12.553  59.599  10.965  1.00  0.00    +0.324 C 
ATOM     17  C   UNL     1      12.407  58.389  11.924  1.00  0.00    +0.324 C 
ATOM     18  C   UNL     1      11.489  61.518  12.254  1.00  0.00    +0.333 C 
ATOM     19  H   UNL     1      13.079  61.599  11.005  1.00  0.00    +0.348 HD
ATOM     20  H   UNL     1      13.261  57.624  13.648  1.00  0.00    +0.348 HD
ENDBRANCH  11  12
ENDBRANCH   6  11
ENDBRANCH   1   5
BRANCH   2  21
ATOM     21  C   UNL     1      15.111  50.944  16.398  1.00  0.00    +0.043 A 
ATOM     22  C   UNL     1      16.371  50.344  16.563  1.00  0.00    +0.052 A 
ATOM     23  C   UNL     1      14.012  50.387  17.039  1.00  0.00    +0.026 A 
ATOM     24  C   UNL     1      16.561  49.206  17.363  1.00  0.00    +0.046 A 
ATOM     25  C   UNL     1      14.169  49.248  17.830  1.00  0.00    +0.008 A 
ATOM     26  C   UNL     1      15.428  48.648  17.996  1.00  0.00    -0.027 A 
ATOM     27  C   UNL     1      15.523  47.418  18.860  1.00  0.00    +0.046 C 
BRANCH  24  28
ATOM     28  N   UNL     1      17.815  48.596  17.516  1.00  0.00    -0.324 N 
ATOM     29  H   UNL     1      18.046  47.854  16.871  1.00  0.00    +0.170 HD
BRANCH  28  30
ATOM     30  C   UNL     1      18.833  48.659  18.465  1.00  0.00    +0.227 A 
ATOM     31  N   UNL     1      18.791  47.973  19.615  1.00  0.00    -0.221 NA
ATOM     32  N   UNL     1      19.849  49.470  18.131  1.00  0.00    -0.213 NA
ATOM     33  C   UNL     1      19.832  48.122  20.452  1.00  0.00    +0.117 A 
ATOM     34  C   UNL     1      20.892  49.595  18.982  1.00  0.00    +0.077 A 
ATOM     35  C   UNL     1      20.916  48.922  20.186  1.00  0.00    +0.049 A 
BRANCH  34  36
ATOM     36  C   UNL     1      21.972  50.494  18.540  1.00  0.00    +0.019 A 
ATOM     37  C   UNL     1      21.870  51.886  18.598  1.00  0.00    +0.121 A 
ATOM     38  C   UNL     1      23.186  49.999  18.036  1.00  0.00    +0.013 A 
ATOM     39  N   UNL     1      22.825  52.759  18.193  1.00  0.00    -0.264 NA
ATOM     40  C   UNL     1      24.193  50.867  17.616  1.00  0.00    +0.021 A 
ATOM     41  C   UNL     1      23.967  52.228  17.712  1.00  0.00    +0.111 A 
ENDBRANCH  34  36
ENDBRANCH  28  30
ENDBRANCH  24  28
ENDBRANCH   2  21
TORSDOF 7
ENDMDL
MODEL 3
REMARK VINA RESULT:    -9.732      3.516     12.679
REMARK INTER + INTRA:         -13.657
REMARK INTER:                 -12.587
REMARK INTRA:                  -1.069
REMARK UNBOUND:                 0.058
REMARK SMILES Cc1ccc(NC(=O)c2ccc(C[N@H+]3CC[N@H+](C)CC3)cc2)cc1Nc1nccc(-c2cccnc2)n1
REMARK SMILES IDX 7 1 6 2 8 3 9 5 12 6 11 7 21 8 10 9 22 10 13 11 14 12 16 13
REMARK SMILES IDX 17 14 15 15 19 16 20 17 18 18 5 21 23 22 4 23 24 24 3 25
REMARK SMILES IDX 2 26 1 27 25 28 26 30 27 31 37 32 28 33 30 34 29 35 31 36
REMARK SMILES IDX 36 37 32 38 35 39 33 40 34 41
REMARK H PARENT 6 4 17 19 14 20 25 29
ROOT
ATOM      1  C   UNL     1      16.117  47.985  17.673  1.00  0.00    +0.255 C 
ATOM      2  N   UNL     1      16.832  48.082  18.846  1.00  0.00    -0.322 N 
ATOM      3  O   UNL     1      15.624  46.987  17.165  1.00  0.00    -0.269 OA
ATOM      4  H   UNL     1      17.064  49.006  19.188  1.00  0.00    +0.170 HD
ENDROOT
BRANCH   1   5
ATOM      5  C   UNL     1      15.917  49.266  16.947  1.00  0.00    +0.040 A 
ATOM      6  C   UNL     1      15.611  51.801  15.772  1.00  0.00    +0.006 A 
ATOM      7  C   UNL     1      16.886  51.328  16.119  1.00  0.00    +0.010 A 
ATOM      8  C   UNL     1      14.494  50.974  15.988  1.00  0.00    +0.010 A 
ATOM      9  C   UNL     1      17.034  50.075  16.713  1.00  0.00    +0.014 A 
ATOM     10  C   UNL     1      14.645  49.713  16.575  1.00  0.00    +0.014 A 
BRANCH   6  11
ATOM     11  C   UNL     1      15.443  53.195  15.233  1.00  0.00    +0.299 C 
BRANCH  11  12
ATOM     12  N   UNL     1      15.326  53.241  13.711  1.00  0.00    -0.322 N 
ATOM     13  C   UNL     1      15.561  55.717  13.140  1.00  0.00    +0.324 C 
ATOM     14  N   UNL     1      16.892  55.433  12.447  1.00  0.00    -0.328 N 
ATOM     15  C   UNL     1      14.633  54.480  13.136  1.00  0.00    +0.324 C 
ATOM     16  C   UNL     1      17.585  54.180  12.977  1.00  0.00    +0.324 C 
ATOM     17  C   UNL     1      16.643  52.948  12.998  1.00  0.00    +0.324 C 
ATOM     18  C   UNL     1      16.813  55.489  10.936  1.00  0.00    +0.333 C 
ATOM     19  H   UNL     1      17.511  56.226  12.687  1.00  0.00    +0.348 HD
ATOM     20  H   UNL     1      14.694  52.453  13.495  1.00  0.00    +0.348 HD
ENDBRANCH  11  12
ENDBRANCH   6  11
ENDBRANCH   1   5
BRANCH   2  21
ATOM     21  C   UNL     1      17.213  47.023  19.700  1.00  0.00    +0.043 A 
ATOM     22  C   UNL     1      18.590  46.809  19.880  1.00  0.00    +0.052 A 
ATOM     23  C   UNL     1      16.313  46.189  20.351  1.00  0.00    +0.026 A 
ATOM     24  C   UNL     1      19.090  45.788  20.703  1.00  0.00    +0.046 A 
ATOM     25  C   UNL     1      16.781  45.157  21.166  1.00  0.00    +0.008 A 
ATOM     26  C   UNL     1      18.157  44.943  21.345  1.00  0.00    -0.027 A 
ATOM     27  C   UNL     1      18.591  43.807  22.235  1.00  0.00    +0.046 C 
BRANCH  24  28
ATOM     28  N   UNL     1      20.464  45.562  20.871  1.00  0.00    -0.324 N 
ATOM     29  H   UNL     1      20.799  44.625  20.699  1.00  0.00    +0.170 HD
BRANCH  28  30
ATOM     30  C   UNL     1      21.531  46.304  21.370  1.00  0.00    +0.227 A 
ATOM     31  N   UNL     1      22.082  46.062  22.567  1.00  0.00    -0.221 NA
ATOM     32  N   UNL     1      21.951  47.284  20.555  1.00  0.00    -0.213 NA
ATOM     33  C   UNL     1      23.104  46.851  22.940  1.00  0.00    +0.117 A 
ATOM     34  C   UNL     1      22.989  48.059  20.944  1.00  0.00    +0.077 A 
ATOM     35  C   UNL     1      23.602  47.869  22.165  1.00  0.00    +0.049 A 
BRANCH  34  36
ATOM     36  C   UNL     1      23.397  49.105  19.991  1.00  0.00    +0.019 A 
ATOM     37  C   UNL     1      24.002  50.300  20.389  1.00  0.00    +0.121 A 
ATOM     38  C   UNL     1      23.207  48.958  18.607  1.00  0.00    +0.013 A 
ATOM     39  N   UNL     1      24.385  51.300  19.558  1.00  0.00    -0.264 NA
ATOM     40  C   UNL     1      23.594  49.964  17.721  1.00  0.00    +0.021 A 
ATOM     41  C   UNL     1      24.172  51.108  18.241  1.00  0.00    +0.111 A 
ENDBRANCH  34  36
ENDBRANCH  28  30
ENDBRANCH  24  28
ENDBRANCH   2  21
TORSDOF 7
ENDMDL
MODEL 4
REMARK VINA RESULT:    -9.699      3.456     12.617
REMARK INTER + INTRA:         -13.611
REMARK INTER:                 -12.727
REMARK INTRA:                  -0.884
REMARK UNBOUND:                 0.058
REMARK SMILES Cc1ccc(NC(=O)c2ccc(C[N@H+]3CC[N@H+](C)CC3)cc2)cc1Nc1nccc(-c2cccnc2)n1
REMARK SMILES IDX 7 1 6 2 8 3 9 5 12 6 11 7 21 8 10 9 22 10 13 11 14 12 16 13
REMARK SMILES IDX 17 14 15 15 19 16 20 17 18 18 5 21 23 22 4 23 24 24 3 25
REMARK SMILES IDX 2 26 1 27 25 28 26 30 27 31 37 32 28 33 30 34 29 35 31 36
REMARK SMILES IDX 36 37 32 38 35 39 33 40 34 41
REMARK H PARENT 6 4 17 19 14 20 25 29
ROOT
ATOM      1  C   UNL     1      15.999  48.032  17.626  1.00  0.00    +0.255 C 
ATOM      2  N   UNL     1      16.601  48.136  18.861  1.00  0.00    -0.322 N 
ATOM      3  O   UNL     1      15.612  47.021  17.055  1.00  0.00    -0.269 OA
ATOM      4  H   UNL     1      16.748  49.062  19.243  1.00  0.00    +0.170 HD
ENDROOT
BRANCH   1   5
ATOM      5  C   UNL     1      15.790  49.318  16.913  1.00  0.00    +0.040 A 
ATOM      6  C   UNL     1      15.496  51.861  15.752  1.00  0.00    +0.006 A 
ATOM      7  C   UNL     1      16.773  51.314  15.952  1.00  0.00    +0.010 A 
ATOM      8  C   UNL     1      14.366  51.103  16.108  1.00  0.00    +0.010 A 
ATOM      9  C   UNL     1      16.918  50.057  16.540  1.00  0.00    +0.014 A 
ATOM     10  C   UNL     1      14.512  49.839  16.689  1.00  0.00    +0.014 A 
BRANCH   6  11
ATOM     11  C   UNL     1      15.348  53.259  15.219  1.00  0.00    +0.299 C 
BRANCH  11  12
ATOM     12  N   UNL     1      15.265  53.317  13.696  1.00  0.00    -0.322 N 
ATOM     13  C   UNL     1      15.744  55.760  13.135  1.00  0.00    +0.324 C 
ATOM     14  N   UNL     1      17.055  55.350  12.466  1.00  0.00    -0.328 N 
ATOM     15  C   UNL     1      14.704  54.617  13.111  1.00  0.00    +0.324 C 
ATOM     16  C   UNL     1      17.616  54.037  13.007  1.00  0.00    +0.324 C 
ATOM     17  C   UNL     1      16.561  52.900  13.007  1.00  0.00    +0.324 C 
ATOM     18  C   UNL     1      17.011  55.415  10.954  1.00  0.00    +0.333 C 
ATOM     19  H   UNL     1      17.743  56.082  12.720  1.00  0.00    +0.348 HD
ATOM     20  H   UNL     1      14.565  52.593  13.466  1.00  0.00    +0.348 HD
ENDBRANCH  11  12
ENDBRANCH   6  11
ENDBRANCH   1   5
BRANCH   2  21
ATOM     21  C   UNL     1      16.966  47.077  19.723  1.00  0.00    +0.043 A 
ATOM     22  C   UNL     1      18.326  46.960  20.052  1.00  0.00    +0.052 A 
ATOM     23  C   UNL     1      16.066  46.155  20.243  1.00  0.00    +0.026 A 
ATOM     24  C   UNL     1      18.809  45.949  20.898  1.00  0.00    +0.046 A 
ATOM     25  C   UNL     1      16.519  45.132  21.076  1.00  0.00    +0.008 A 
ATOM     26  C   UNL     1      17.879  45.014  21.405  1.00  0.00    -0.027 A 
ATOM     27  C   UNL     1      18.299  43.881  22.306  1.00  0.00    +0.046 C 
BRANCH  24  28
ATOM     28  N   UNL     1      20.170  45.820  21.214  1.00  0.00    -0.324 N 
ATOM     29  H   UNL     1      20.655  45.019  20.836  1.00  0.00    +0.170 HD
BRANCH  28  30
ATOM     30  C   UNL     1      21.048  46.475  22.074  1.00  0.00    +0.227 A 
ATOM     31  N   UNL     1      21.995  45.829  22.768  1.00  0.00    -0.221 NA
ATOM     32  N   UNL     1      20.859  47.801  22.151  1.00  0.00    -0.213 NA
ATOM     33  C   UNL     1      22.778  46.572  23.569  1.00  0.00    +0.117 A 
ATOM     34  C   UNL     1      21.667  48.531  22.954  1.00  0.00    +0.077 A 
ATOM     35  C   UNL     1      22.660  47.933  23.701  1.00  0.00    +0.049 A 
BRANCH  34  36
ATOM     36  C   UNL     1      21.402  49.980  22.976  1.00  0.00    +0.019 A 
ATOM     37  C   UNL     1      21.867  50.851  21.987  1.00  0.00    +0.121 A 
ATOM     38  C   UNL     1      20.652  50.578  24.001  1.00  0.00    +0.013 A 
ATOM     39  N   UNL     1      21.665  52.191  21.965  1.00  0.00    -0.264 NA
ATOM     40  C   UNL     1      20.419  51.953  24.008  1.00  0.00    +0.021 A 
ATOM     41  C   UNL     1      20.943  52.712  22.978  1.00  0.00    +0.111 A 
ENDBRANCH  34  36
ENDBRANCH  28  30
ENDBRANCH  24  28
ENDBRANCH   2  21
TORSDOF 7
ENDMDL
MODEL 5
REMARK VINA RESULT:    -9.675      1.848     13.156
REMARK INTER + INTRA:         -13.576
REMARK INTER:                 -13.330
REMARK INTRA:                  -0.247
REMARK UNBOUND:                 0.058
REMARK SMILES Cc1ccc(NC(=O)c2ccc(C[N@H+]3CC[N@H+](C)CC3)cc2)cc1Nc1nccc(-c2cccnc2)n1
REMARK SMILES IDX 7 1 6 2 8 3 9 5 12 6 11 7 21 8 10 9 22 10 13 11 14 12 16 13
REMARK SMILES IDX 17 14 15 15 19 16 20 17 18 18 5 21 23 22 4 23 24 24 3 25
REMARK SMILES IDX 2 26 1 27 25 28 26 30 27 31 37 32 28 33 30 34 29 35 31 36
REMARK SMILES IDX 36 37 32 38 35 39 33 40 34 41
REMARK H PARENT 6 4 17 19 14 20 25 29
ROOT
ATOM      1  C   UNL     1      16.108  52.652  14.652  1.00  0.00    +0.255 C 
ATOM      2  N   UNL     1      15.127  52.152  15.479  1.00  0.00    -0.322 N 
ATOM      3  O   UNL     1      17.213  52.181  14.415  1.00  0.00    -0.269 OA
ATOM      4  H   UNL     1      14.220  52.601  15.468  1.00  0.00    +0.170 HD
ENDROOT
BRANCH   1   5
ATOM      5  C   UNL     1      15.765  53.919  13.956  1.00  0.00    +0.040 A 
ATOM      6  C   UNL     1      15.170  56.430  12.843  1.00  0.00    +0.006 A 
ATOM      7  C   UNL     1      16.489  56.102  13.194  1.00  0.00    +0.010 A 
ATOM      8  C   UNL     1      14.158  55.471  13.024  1.00  0.00    +0.010 A 
ATOM      9  C   UNL     1      16.780  54.860  13.758  1.00  0.00    +0.014 A 
ATOM     10  C   UNL     1      14.453  54.222  13.581  1.00  0.00    +0.014 A 
BRANCH   6  11
ATOM     11  C   UNL     1      14.844  57.808  12.338  1.00  0.00    +0.299 C 
BRANCH  11  12
ATOM     12  N   UNL     1      13.555  58.375  12.929  1.00  0.00    -0.322 N 
ATOM     13  C   UNL     1      13.850  60.905  12.760  1.00  0.00    +0.324 C 
ATOM     14  N   UNL     1      12.720  60.969  11.733  1.00  0.00    -0.328 N 
ATOM     15  C   UNL     1      13.703  59.689  13.703  1.00  0.00    +0.324 C 
ATOM     16  C   UNL     1      12.529  59.658  10.973  1.00  0.00    +0.324 C 
ATOM     17  C   UNL     1      12.410  58.438  11.922  1.00  0.00    +0.324 C 
ATOM     18  C   UNL     1      11.433  61.545  12.284  1.00  0.00    +0.333 C 
ATOM     19  H   UNL     1      13.017  61.668  11.029  1.00  0.00    +0.348 HD
ATOM     20  H   UNL     1      13.286  57.673  13.636  1.00  0.00    +0.348 HD
ENDBRANCH  11  12
ENDBRANCH   6  11
ENDBRANCH   1   5
BRANCH   2  21
ATOM     21  C   UNL     1      15.207  51.002  16.298  1.00  0.00    +0.043 A 
ATOM     22  C   UNL     1      16.471  50.406  16.442  1.00  0.00    +0.052 A 
ATOM     23  C   UNL     1      14.117  50.435  16.946  1.00  0.00    +0.026 A 
ATOM     24  C   UNL     1      16.674  49.261  17.228  1.00  0.00    +0.046 A 
ATOM     25  C   UNL     1      14.288  49.289  17.723  1.00  0.00    +0.008 A 
ATOM     26  C   UNL     1      15.550  48.692  17.868  1.00  0.00    -0.027 A 
ATOM     27  C   UNL     1      15.660  47.453  18.718  1.00  0.00    +0.046 C 
BRANCH  24  28
ATOM     28  N   UNL     1      17.933  48.653  17.360  1.00  0.00    -0.324 N 
ATOM     29  H   UNL     1      18.215  48.019  16.627  1.00  0.00    +0.170 HD
BRANCH  28  30
ATOM     30  C   UNL     1      18.896  48.591  18.363  1.00  0.00    +0.227 A 
ATOM     31  N   UNL     1      19.880  49.495  18.477  1.00  0.00    -0.221 NA
ATOM     32  N   UNL     1      18.759  47.548  19.197  1.00  0.00    -0.213 NA
ATOM     33  C   UNL     1      20.752  49.323  19.484  1.00  0.00    +0.117 A 
ATOM     34  C   UNL     1      19.641  47.402  20.211  1.00  0.00    +0.077 A 
ATOM     35  C   UNL     1      20.680  48.291  20.387  1.00  0.00    +0.049 A 
BRANCH  34  36
ATOM     36  C   UNL     1      19.417  46.239  21.088  1.00  0.00    +0.019 A 
ATOM     37  C   UNL     1      20.084  46.067  22.303  1.00  0.00    +0.121 A 
ATOM     38  C   UNL     1      18.504  45.227  20.753  1.00  0.00    +0.013 A 
ATOM     39  N   UNL     1      19.927  45.013  23.141  1.00  0.00    -0.264 NA
ATOM     40  C   UNL     1      18.311  44.130  21.594  1.00  0.00    +0.021 A 
ATOM     41  C   UNL     1      19.042  44.068  22.766  1.00  0.00    +0.111 A 
ENDBRANCH  34  36
ENDBRANCH  28  30
ENDBRANCH  24  28
ENDBRANCH   2  21
TORSDOF 7
ENDMDL
MODEL 6
REMARK VINA RESULT:    -9.673      4.127      6.602
REMARK INTER + INTRA:         -13.574
REMARK INTER:                 -12.882
REMARK INTRA:                  -0.691
REMARK UNBOUND:                 0.058
REMARK SMILES Cc1ccc(NC(=O)c2ccc(C[N@H+]3CC[N@H+](C)CC3)cc2)cc1Nc1nccc(-c2cccnc2)n1
REMARK SMILES IDX 7 1 6 2 8 3 9 5 12 6 11 7 21 8 10 9 22 10 13 11 14 12 16 13
REMARK SMILES IDX 17 14 15 15 19 16 20 17 18 18 5 21 23 22 4 23 24 24 3 25
REMARK SMILES IDX 2 26 1 27 25 28 26 30 27 31 37 32 28 33 30 34 29 35 31 36
REMARK SMILES IDX 36 37 32 38 35 39 33 40 34 41
REMARK H PARENT 6 4 17 19 14 20 25 29
ROOT
ATOM      1  C   UNL     1      19.113  48.611  18.396  1.00  0.00    +0.255 C 
ATOM      2  N   UNL     1      18.223  49.638  18.169  1.00  0.00    -0.322 N 
ATOM      3  O   UNL     1      19.079  47.468  17.959  1.00  0.00    -0.269 OA
ATOM      4  H   UNL     1      18.464  50.561  18.508  1.00  0.00    +0.170 HD
ENDROOT
BRANCH   1   5
ATOM      5  C   UNL     1      20.261  48.952  19.275  1.00  0.00    +0.040 A 
ATOM      6  C   UNL     1      22.277  49.700  21.085  1.00  0.00    +0.006 A 
ATOM      7  C   UNL     1      21.306  48.756  21.453  1.00  0.00    +0.010 A 
ATOM      8  C   UNL     1      22.247  50.239  19.786  1.00  0.00    +0.010 A 
ATOM      9  C   UNL     1      20.299  48.395  20.558  1.00  0.00    +0.014 A 
ATOM     10  C   UNL     1      21.242  49.869  18.886  1.00  0.00    +0.014 A 
BRANCH   6  11
ATOM     11  C   UNL     1      23.294  50.168  22.089  1.00  0.00    +0.299 C 
BRANCH  11  12
ATOM     12  N   UNL     1      23.093  51.620  22.517  1.00  0.00    -0.322 N 
ATOM     13  C   UNL     1      20.913  51.585  23.843  1.00  0.00    +0.324 C 
ATOM     14  N   UNL     1      21.682  51.925  25.118  1.00  0.00    -0.328 N 
ATOM     15  C   UNL     1      21.639  52.098  22.578  1.00  0.00    +0.324 C 
ATOM     16  C   UNL     1      23.145  51.491  25.067  1.00  0.00    +0.324 C 
ATOM     17  C   UNL     1      23.862  51.984  23.784  1.00  0.00    +0.324 C 
ATOM     18  C   UNL     1      21.488  53.354  25.580  1.00  0.00    +0.333 C 
ATOM     19  H   UNL     1      21.243  51.365  25.871  1.00  0.00    +0.348 HD
ATOM     20  H   UNL     1      23.523  52.159  21.748  1.00  0.00    +0.348 HD
ENDBRANCH  11  12
ENDBRANCH   6  11
ENDBRANCH   1   5
BRANCH   2  21
ATOM     21  C   UNL     1      17.024  49.577  17.424  1.00  0.00    +0.043 A 
ATOM     22  C   UNL     1      16.719  50.681  16.610  1.00  0.00    +0.052 A 
ATOM     23  C   UNL     1      16.140  48.506  17.464  1.00  0.00    +0.026 A 
ATOM     24  C   UNL     1      15.557  50.735  15.825  1.00  0.00    +0.046 A 
ATOM     25  C   UNL     1      14.971  48.538  16.704  1.00  0.00    +0.008 A 
ATOM     26  C   UNL     1      14.665  49.641  15.890  1.00  0.00    -0.027 A 
ATOM     27  C   UNL     1      13.382  49.611  15.101  1.00  0.00    +0.046 C 
BRANCH  24  28
ATOM     28  N   UNL     1      15.242  51.844  15.024  1.00  0.00    -0.324 N 
ATOM     29  H   UNL     1      14.269  52.111  14.973  1.00  0.00    +0.170 HD
BRANCH  28  30
ATOM     30  C   UNL     1      15.944  52.640  14.124  1.00  0.00    +0.227 A 
ATOM     31  N   UNL     1      17.065  52.226  13.517  1.00  0.00    -0.221 NA
ATOM     32  N   UNL     1      15.408  53.854  13.924  1.00  0.00    -0.213 NA
ATOM     33  C   UNL     1      17.655  53.089  12.672  1.00  0.00    +0.117 A 
ATOM     34  C   UNL     1      16.011  54.702  13.060  1.00  0.00    +0.077 A 
ATOM     35  C   UNL     1      17.170  54.345  12.403  1.00  0.00    +0.049 A 
BRANCH  34  36
ATOM     36  C   UNL     1      15.356  56.010  12.888  1.00  0.00    +0.019 A 
ATOM     37  C   UNL     1      13.975  56.151  12.731  1.00  0.00    +0.121 A 
ATOM     38  C   UNL     1      16.089  57.207  12.880  1.00  0.00    +0.013 A 
ATOM     39  N   UNL     1      13.322  57.326  12.556  1.00  0.00    -0.264 NA
ATOM     40  C   UNL     1      15.451  58.436  12.709  1.00  0.00    +0.021 A 
ATOM     41  C   UNL     1      14.077  58.443  12.550  1.00  0.00    +0.111 A 
ENDBRANCH  34  36
ENDBRANCH  28  30
ENDBRANCH  24  28
ENDBRANCH   2  21
TORSDOF 7
ENDMDL
MODEL 7
REMARK VINA RESULT:    -9.513      3.964     12.706
REMARK INTER + INTRA:         -13.348
REMARK INTER:                 -12.229
REMARK INTRA:                  -1.118
REMARK UNBOUND:                 0.058
REMARK SMILES Cc1ccc(NC(=O)c2ccc(C[N@H+]3CC[N@H+](C)CC3)cc2)cc1Nc1nccc(-c2cccnc2)n1
REMARK SMILES IDX 7 1 6 2 8 3 9 5 12 6 11 7 21 8 10 9 22 10 13 11 14 12 16 13
REMARK SMILES IDX 17 14 15 15 19 16 20 17 18 18 5 21 23 22 4 23 24 24 3 25
REMARK SMILES IDX 2 26 1 27 25 28 26 30 27 31 37 32 28 33 30 34 29 35 31 36
REMARK SMILES IDX 36 37 32 38 35 39 33 40 34 41
REMARK H PARENT 6 4 17 19 14 20 25 29
ROOT
ATOM      1  C   UNL     1      16.229  48.119  19.639  1.00  0.00    +0.255 C 
ATOM      2  N   UNL     1      17.388  47.378  19.584  1.00  0.00    -0.322 N 
ATOM      3  O   UNL     1      15.441  48.227  20.570  1.00  0.00    -0.269 OA
ATOM      4  H   UNL     1      17.992  47.496  18.780  1.00  0.00    +0.170 HD
ENDROOT
BRANCH   1   5
ATOM      5  C   UNL     1      15.911  48.890  18.409  1.00  0.00    +0.040 A 
ATOM      6  C   UNL     1      15.432  50.530  16.178  1.00  0.00    +0.006 A 
ATOM      7  C   UNL     1      16.734  50.102  16.478  1.00  0.00    +0.010 A 
ATOM      8  C   UNL     1      14.367  50.098  16.988  1.00  0.00    +0.010 A 
ATOM      9  C   UNL     1      16.972  49.298  17.593  1.00  0.00    +0.014 A 
ATOM     10  C   UNL     1      14.606  49.284  18.101  1.00  0.00    +0.014 A 
BRANCH   6  11
ATOM     11  C   UNL     1      15.195  51.485  15.040  1.00  0.00    +0.299 C 
BRANCH  11  12
ATOM     12  N   UNL     1      15.998  52.777  15.162  1.00  0.00    -0.322 N 
ATOM     13  C   UNL     1      16.831  53.223  12.791  1.00  0.00    +0.324 C 
ATOM     14  N   UNL     1      15.946  54.465  12.713  1.00  0.00    -0.328 N 
ATOM     15  C   UNL     1      17.223  52.886  14.248  1.00  0.00    +0.324 C 
ATOM     16  C   UNL     1      14.737  54.397  13.643  1.00  0.00    +0.324 C 
ATOM     17  C   UNL     1      15.131  54.031  15.097  1.00  0.00    +0.324 C 
ATOM     18  C   UNL     1      16.715  55.765  12.812  1.00  0.00    +0.333 C 
ATOM     19  H   UNL     1      15.565  54.482  11.750  1.00  0.00    +0.348 HD
ATOM     20  H   UNL     1      16.380  52.734  16.121  1.00  0.00    +0.348 HD
ENDBRANCH  11  12
ENDBRANCH   6  11
ENDBRANCH   1   5
BRANCH   2  21
ATOM     21  C   UNL     1      17.896  46.516  20.582  1.00  0.00    +0.043 A 
ATOM     22  C   UNL     1      18.838  47.055  21.474  1.00  0.00    +0.052 A 
ATOM     23  C   UNL     1      17.528  45.184  20.717  1.00  0.00    +0.026 A 
ATOM     24  C   UNL     1      19.414  46.297  22.506  1.00  0.00    +0.046 A 
ATOM     25  C   UNL     1      18.092  44.402  21.725  1.00  0.00    +0.008 A 
ATOM     26  C   UNL     1      19.035  44.940  22.617  1.00  0.00    -0.027 A 
ATOM     27  C   UNL     1      19.608  44.037  23.679  1.00  0.00    +0.046 C 
BRANCH  24  28
ATOM     28  N   UNL     1      20.367  46.828  23.388  1.00  0.00    -0.324 N 
ATOM     29  H   UNL     1      20.212  46.680  24.374  1.00  0.00    +0.170 HD
BRANCH  28  30
ATOM     30  C   UNL     1      21.469  47.669  23.257  1.00  0.00    +0.227 A 
ATOM     31  N   UNL     1      22.663  47.234  22.832  1.00  0.00    -0.221 NA
ATOM     32  N   UNL     1      21.234  48.945  23.600  1.00  0.00    -0.213 NA
ATOM     33  C   UNL     1      23.651  48.142  22.753  1.00  0.00    +0.117 A 
ATOM     34  C   UNL     1      22.238  49.845  23.501  1.00  0.00    +0.077 A 
ATOM     35  C   UNL     1      23.495  49.468  23.075  1.00  0.00    +0.049 A 
BRANCH  34  36
ATOM     36  C   UNL     1      21.898  51.225  23.886  1.00  0.00    +0.019 A 
ATOM     37  C   UNL     1      22.592  51.929  24.874  1.00  0.00    +0.121 A 
ATOM     38  C   UNL     1      20.850  51.927  23.270  1.00  0.00    +0.013 A 
ATOM     39  N   UNL     1      22.314  53.193  25.277  1.00  0.00    -0.264 NA
ATOM     40  C   UNL     1      20.539  53.231  23.654  1.00  0.00    +0.021 A 
ATOM     41  C   UNL     1      21.293  53.816  24.656  1.00  0.00    +0.111 A 
ENDBRANCH  34  36
ENDBRANCH  28  30
ENDBRANCH  24  28
ENDBRANCH   2  21
TORSDOF 7
ENDMDL
