MODEL 1
REMARK VINA RESULT:   -12.669      0.000      0.000
REMARK INTER + INTRA:         -18.073
REMARK INTER:                 -17.853
REMARK INTRA:                  -0.220
REMARK UNBOUND:                -0.220
REMARK SMILES Cc1ccc(NC(=O)c2ccc(C[N@H+]3CC[N@H+](C)CC3)cc2)cc1Nc1nccc(-c2cccnc2)n1
REMARK SMILES IDX 7 1 6 2 8 3 9 5 12 6 11 7 21 8 10 9 22 10 13 11 14 12 16 13
REMARK SMILES IDX 17 14 15 15 19 16 20 17 18 18 5 21 23 22 4 23 24 24 3 25
REMARK SMILES IDX 2 26 1 27 25 28 26 30 27 31 37 32 28 33 30 34 29 35 31 36
REMARK SMILES IDX 36 37 32 38 35 39 33 40 34 41
REMARK H PARENT 6 4 17 19 14 20 25 29
ROOT
ATOM      1  C   UNL     1      15.631  51.930  15.520  1.00  0.00    +0.255 C 
ATOM      2  N   UNL     1      16.404  51.766  14.391  1.00  0.00    -0.322 N 
ATOM      3  O   UNL     1      14.947  52.895  15.836  1.00  0.00    -0.269 OA
ATOM      4  H   UNL     1      16.811  50.855  14.221  1.00  0.00    +0.170 HD
ENDROOT
BRANCH   1   5
ATOM      5  C   UNL     1      15.629  50.778  16.458  1.00  0.00    +0.040 A 
ATOM      6  C   UNL     1      15.649  48.457  18.043  1.00  0.00    +0.006 A 
ATOM      7  C   UNL     1      16.796  48.843  17.332  1.00  0.00    +0.010 A 
ATOM      8  C   UNL     1      14.501  49.268  17.978  1.00  0.00    +0.010 A 
ATOM      9  C   UNL     1      16.781  49.988  16.537  1.00  0.00    +0.014 A 
ATOM     10  C   UNL     1      14.490  50.422  17.186  1.00  0.00    +0.014 A 
BRANCH   6  11
ATOM     11  C   UNL     1      15.635  47.165  18.811  1.00  0.00    +0.299 C 
BRANCH  11  12
ATOM     12  N   UNL     1      16.046  47.330  20.272  1.00  0.00    -0.322 N 
ATOM     13  C   UNL     1      17.271  45.160  20.826  1.00  0.00    +0.324 C 
ATOM     14  N   UNL     1      18.578  45.935  20.976  1.00  0.00    -0.328 N 
ATOM     15  C   UNL     1      16.038  46.049  21.112  1.00  0.00    +0.324 C 
ATOM     16  C   UNL     1      18.597  47.236  20.177  1.00  0.00    +0.324 C 
ATOM     17  C   UNL     1      17.345  48.112  20.445  1.00  0.00    +0.324 C 
ATOM     18  C   UNL     1      19.024  46.100  22.414  1.00  0.00    +0.333 C 
ATOM     19  H   UNL     1      19.313  45.334  20.562  1.00  0.00    +0.348 HD
ATOM     20  H   UNL     1      15.295  47.917  20.669  1.00  0.00    +0.348 HD
ENDBRANCH  11  12
ENDBRANCH   6  11
ENDBRANCH   1   5
BRANCH   2  21
ATOM     21  C   UNL     1      16.630  52.714  13.368  1.00  0.00    +0.043 A 
ATOM     22  C   UNL     1      15.817  53.860  13.366  1.00  0.00    +0.052 A 
ATOM     23  C   UNL     1      17.589  52.569  12.374  1.00  0.00    +0.026 A 
ATOM     24  C   UNL     1      15.947  54.870  12.401  1.00  0.00    +0.046 A 
ATOM     25  C   UNL     1      17.732  53.551  11.394  1.00  0.00    +0.008 A 
ATOM     26  C   UNL     1      16.920  54.696  11.391  1.00  0.00    -0.027 A 
ATOM     27  C   UNL     1      17.125  55.714  10.299  1.00  0.00    +0.046 C 
BRANCH  24  28
ATOM     28  N   UNL     1      15.124  56.008  12.387  1.00  0.00    -0.324 N 
ATOM     29  H   UNL     1      14.204  55.903  11.985  1.00  0.00    +0.170 HD
BRANCH  28  30
ATOM     30  C   UNL     1      15.304  57.357  12.681  1.00  0.00    +0.227 A 
ATOM     31  N   UNL     1      16.466  57.848  13.135  1.00  0.00    -0.221 NA
ATOM     32  N   UNL     1      14.216  58.116  12.479  1.00  0.00    -0.213 NA
ATOM     33  C   UNL     1      16.512  59.167  13.388  1.00  0.00    +0.117 A 
ATOM     34  C   UNL     1      14.289  59.443  12.728  1.00  0.00    +0.077 A 
ATOM     35  C   UNL     1      15.450  60.017  13.201  1.00  0.00    +0.049 A 
BRANCH  34  36
ATOM     36  C   UNL     1      13.057  60.209  12.473  1.00  0.00    +0.019 A 
ATOM     37  C   UNL     1      11.971  59.683  11.768  1.00  0.00    +0.121 A 
ATOM     38  C   UNL     1      12.895  61.524  12.936  1.00  0.00    +0.013 A 
ATOM     39  N   UNL     1      10.821  60.346  11.493  1.00  0.00    -0.264 NA
ATOM     40  C   UNL     1      11.723  62.235  12.677  1.00  0.00    +0.021 A 
ATOM     41  C   UNL     1      10.723  61.608  11.956  1.00  0.00    +0.111 A 
ENDBRANCH  34  36
ENDBRANCH  28  30
ENDBRANCH  24  28
ENDBRANCH   2  21
TORSDOF 7
ENDMDL
