MODEL 1
REMARK VINA RESULT:    -9.497      0.000      0.000
REMARK INTER + INTRA:         -13.879
REMARK INTER:                 -13.384
REMARK INTRA:                  -0.495
REMARK UNBOUND:                -0.495
REMARK SMILES Cc1ccc(NC(=O)c2ccc(C[N@H+]3CC[N@H+](C)CC3)cc2)cc1Nc1nccc(-c2cccnc2)n1
REMARK SMILES IDX 7 1 6 2 8 3 9 5 12 6 11 7 21 8 10 9 22 10 13 11 14 12 16 13
REMARK SMILES IDX 17 14 15 15 19 16 20 17 18 18 5 21 23 22 4 23 24 24 3 25
REMARK SMILES IDX 2 26 1 27 25 28 26 30 27 31 37 32 28 33 30 34 29 35 31 36
REMARK SMILES IDX 36 37 32 38 35 39 33 40 34 41
REMARK H PARENT 6 4 17 19 14 20 25 29
ROOT
ATOM      1  C   UNL     1      16.072  52.526  14.729  1.00  0.00    +0.255 C 
ATOM      2  N   UNL     1      15.103  52.080  15.602  1.00  0.00    -0.322 N 
ATOM      3  O   UNL     1      17.141  51.999  14.450  1.00  0.00    -0.269 OA
ATOM      4  H   UNL     1      14.219  52.573  15.625  1.00  0.00    +0.170 HD
ENDROOT
BRANCH   1   5
ATOM      5  C   UNL     1      15.760  53.803  14.037  1.00  0.00    +0.040 A 
ATOM      6  C   UNL     1      15.228  56.331  12.932  1.00  0.00    +0.006 A 
ATOM      7  C   UNL     1      16.536  55.975  13.294  1.00  0.00    +0.010 A 
ATOM      8  C   UNL     1      14.194  55.392  13.098  1.00  0.00    +0.010 A 
ATOM      9  C   UNL     1      16.797  54.725  13.854  1.00  0.00    +0.014 A 
ATOM     10  C   UNL     1      14.458  54.134  13.651  1.00  0.00    +0.014 A 
BRANCH   6  11
ATOM     11  C   UNL     1      14.934  57.719  12.431  1.00  0.00    +0.299 C 
BRANCH  11  12
ATOM     12  N   UNL     1      13.627  58.290  12.976  1.00  0.00    -0.322 N 
ATOM     13  C   UNL     1      13.876  60.813  12.680  1.00  0.00    +0.324 C 
ATOM     14  N   UNL     1      12.760  60.802  11.638  1.00  0.00    -0.328 N 
ATOM     15  C   UNL     1      13.739  59.644  13.683  1.00  0.00    +0.324 C 
ATOM     16  C   UNL     1      12.603  59.451  10.944  1.00  0.00    +0.324 C 
ATOM     17  C   UNL     1      12.494  58.278  11.953  1.00  0.00    +0.324 C 
ATOM     18  C   UNL     1      11.454  61.381  12.142  1.00  0.00    +0.333 C 
ATOM     19  H   UNL     1      13.052  61.469  10.903  1.00  0.00    +0.348 HD
ATOM     20  H   UNL     1      13.361  57.620  13.715  1.00  0.00    +0.348 HD
ENDBRANCH  11  12
ENDBRANCH   6  11
ENDBRANCH   1   5
BRANCH   2  21
ATOM     21  C   UNL     1      15.162  50.934  16.426  1.00  0.00    +0.043 A 
ATOM     22  C   UNL     1      16.419  50.328  16.592  1.00  0.00    +0.052 A 
ATOM     23  C   UNL     1      14.059  50.378  17.061  1.00  0.00    +0.026 A 
ATOM     24  C   UNL     1      16.602  49.185  17.386  1.00  0.00    +0.046 A 
ATOM     25  C   UNL     1      14.209  49.234  17.846  1.00  0.00    +0.008 A 
ATOM     26  C   UNL     1      15.465  48.628  18.012  1.00  0.00    -0.027 A 
ATOM     27  C   UNL     1      15.552  47.392  18.869  1.00  0.00    +0.046 C 
BRANCH  24  28
ATOM     28  N   UNL     1      17.854  48.568  17.539  1.00  0.00    -0.324 N 
ATOM     29  H   UNL     1      18.078  47.821  16.898  1.00  0.00    +0.170 HD
BRANCH  28  30
ATOM     30  C   UNL     1      18.874  48.632  18.484  1.00  0.00    +0.227 A 
ATOM     31  N   UNL     1      18.870  47.892  19.601  1.00  0.00    -0.221 NA
ATOM     32  N   UNL     1      19.852  49.500  18.183  1.00  0.00    -0.213 NA
ATOM     33  C   UNL     1      19.910  48.047  20.439  1.00  0.00    +0.117 A 
ATOM     34  C   UNL     1      20.895  49.631  19.034  1.00  0.00    +0.077 A 
ATOM     35  C   UNL     1      20.956  48.905  20.205  1.00  0.00    +0.049 A 
BRANCH  34  36
ATOM     36  C   UNL     1      21.932  50.596  18.628  1.00  0.00    +0.019 A 
ATOM     37  C   UNL     1      21.687  51.966  18.511  1.00  0.00    +0.121 A 
ATOM     38  C   UNL     1      23.245  50.191  18.341  1.00  0.00    +0.013 A 
ATOM     39  N   UNL     1      22.598  52.895  18.130  1.00  0.00    -0.264 NA
ATOM     40  C   UNL     1      24.211  51.120  17.952  1.00  0.00    +0.021 A 
ATOM     41  C   UNL     1      23.841  52.449  17.860  1.00  0.00    +0.111 A 
ENDBRANCH  34  36
ENDBRANCH  28  30
ENDBRANCH  24  28
ENDBRANCH   2  21
TORSDOF 7
ENDMDL
MODEL 2
REMARK VINA RESULT:    -9.346      2.989      5.078
REMARK INTER + INTRA:         -13.666
REMARK INTER:                 -12.673
REMARK INTRA:                  -0.992
REMARK UNBOUND:                -0.495
REMARK SMILES Cc1ccc(NC(=O)c2ccc(C[N@H+]3CC[N@H+](C)CC3)cc2)cc1Nc1nccc(-c2cccnc2)n1
REMARK SMILES IDX 7 1 6 2 8 3 9 5 12 6 11 7 21 8 10 9 22 10 13 11 14 12 16 13
REMARK SMILES IDX 17 14 15 15 19 16 20 17 18 18 5 21 23 22 4 23 24 24 3 25
REMARK SMILES IDX 2 26 1 27 25 28 26 30 27 31 37 32 28 33 30 34 29 35 31 36
REMARK SMILES IDX 36 37 32 38 35 39 33 40 34 41
REMARK H PARENT 6 4 17 19 14 20 25 29
ROOT
ATOM      1  C   UNL     1      16.059  48.032  17.647  1.00  0.00    +0.255 C 
ATOM      2  N   UNL     1      16.722  48.136  18.850  1.00  0.00    -0.322 N 
ATOM      3  O   UNL     1      15.613  47.025  17.112  1.00  0.00    -0.269 OA
ATOM      4  H   UNL     1      16.916  49.063  19.208  1.00  0.00    +0.170 HD
ENDROOT
BRANCH   1   5
ATOM      5  C   UNL     1      15.856  49.313  16.923  1.00  0.00    +0.040 A 
ATOM      6  C   UNL     1      15.573  51.847  15.740  1.00  0.00    +0.006 A 
ATOM      7  C   UNL     1      16.848  51.302  15.957  1.00  0.00    +0.010 A 
ATOM      8  C   UNL     1      14.439  51.091  16.091  1.00  0.00    +0.010 A 
ATOM      9  C   UNL     1      16.987  50.050  16.555  1.00  0.00    +0.014 A 
ATOM     10  C   UNL     1      14.580  49.831  16.683  1.00  0.00    +0.014 A 
BRANCH   6  11
ATOM     11  C   UNL     1      15.429  53.242  15.196  1.00  0.00    +0.299 C 
BRANCH  11  12
ATOM     12  N   UNL     1      15.342  53.286  13.672  1.00  0.00    -0.322 N 
ATOM     13  C   UNL     1      15.649  55.755  13.101  1.00  0.00    +0.324 C 
ATOM     14  N   UNL     1      16.986  55.435  12.434  1.00  0.00    -0.328 N 
ATOM     15  C   UNL     1      14.692  54.541  13.082  1.00  0.00    +0.324 C 
ATOM     16  C   UNL     1      17.638  54.167  12.980  1.00  0.00    +0.324 C 
ATOM     17  C   UNL     1      16.665  52.959  12.986  1.00  0.00    +0.324 C 
ATOM     18  C   UNL     1      16.937  55.490  10.922  1.00  0.00    +0.333 C 
ATOM     19  H   UNL     1      17.621  56.214  12.684  1.00  0.00    +0.348 HD
ATOM     20  H   UNL     1      14.695  52.514  13.446  1.00  0.00    +0.348 HD
ENDBRANCH  11  12
ENDBRANCH   6  11
ENDBRANCH   1   5
BRANCH   2  21
ATOM     21  C   UNL     1      17.095  47.080  19.712  1.00  0.00    +0.043 A 
ATOM     22  C   UNL     1      18.469  46.875  19.915  1.00  0.00    +0.052 A 
ATOM     23  C   UNL     1      16.188  46.241  20.347  1.00  0.00    +0.026 A 
ATOM     24  C   UNL     1      18.961  45.857  20.748  1.00  0.00    +0.046 A 
ATOM     25  C   UNL     1      16.648  45.213  21.171  1.00  0.00    +0.008 A 
ATOM     26  C   UNL     1      18.022  45.007  21.374  1.00  0.00    -0.027 A 
ATOM     27  C   UNL     1      18.447  43.874  22.272  1.00  0.00    +0.046 C 
BRANCH  24  28
ATOM     28  N   UNL     1      20.334  45.639  20.939  1.00  0.00    -0.324 N 
ATOM     29  H   UNL     1      20.672  44.698  20.803  1.00  0.00    +0.170 HD
BRANCH  28  30
ATOM     30  C   UNL     1      21.393  46.400  21.425  1.00  0.00    +0.227 A 
ATOM     31  N   UNL     1      21.922  46.207  22.642  1.00  0.00    -0.221 NA
ATOM     32  N   UNL     1      21.831  47.344  20.577  1.00  0.00    -0.213 NA
ATOM     33  C   UNL     1      22.939  47.010  22.999  1.00  0.00    +0.117 A 
ATOM     34  C   UNL     1      22.864  48.132  20.952  1.00  0.00    +0.077 A 
ATOM     35  C   UNL     1      23.454  47.993  22.190  1.00  0.00    +0.049 A 
BRANCH  34  36
ATOM     36  C   UNL     1      23.291  49.136  19.963  1.00  0.00    +0.019 A 
ATOM     37  C   UNL     1      23.862  50.359  20.323  1.00  0.00    +0.121 A 
ATOM     38  C   UNL     1      23.157  48.917  18.582  1.00  0.00    +0.013 A 
ATOM     39  N   UNL     1      24.261  51.323  19.456  1.00  0.00    -0.264 NA
ATOM     40  C   UNL     1      23.562  49.883  17.662  1.00  0.00    +0.021 A 
ATOM     41  C   UNL     1      24.102  51.061  18.144  1.00  0.00    +0.111 A 
ENDBRANCH  34  36
ENDBRANCH  28  30
ENDBRANCH  24  28
ENDBRANCH   2  21
TORSDOF 7
ENDMDL
MODEL 3
REMARK VINA RESULT:    -9.303      1.535      3.552
REMARK INTER + INTRA:         -13.605
REMARK INTER:                 -13.330
REMARK INTRA:                  -0.275
REMARK UNBOUND:                -0.495
REMARK SMILES Cc1ccc(NC(=O)c2ccc(C[N@H+]3CC[N@H+](C)CC3)cc2)cc1Nc1nccc(-c2cccnc2)n1
REMARK SMILES IDX 7 1 6 2 8 3 9 5 12 6 11 7 21 8 10 9 22 10 13 11 14 12 16 13
REMARK SMILES IDX 17 14 15 15 19 16 20 17 18 18 5 21 23 22 4 23 24 24 3 25
REMARK SMILES IDX 2 26 1 27 25 28 26 30 27 31 37 32 28 33 30 34 29 35 31 36
REMARK SMILES IDX 36 37 32 38 35 39 33 40 34 41
REMARK H PARENT 6 4 17 19 14 20 25 29
ROOT
ATOM      1  C   UNL     1      16.037  52.659  14.634  1.00  0.00    +0.255 C 
ATOM      2  N   UNL     1      15.083  52.185  15.508  1.00  0.00    -0.322 N 
ATOM      3  O   UNL     1      17.115  52.157  14.344  1.00  0.00    -0.269 OA
ATOM      4  H   UNL     1      14.190  52.660  15.541  1.00  0.00    +0.170 HD
ENDROOT
BRANCH   1   5
ATOM      5  C   UNL     1      15.696  53.937  13.957  1.00  0.00    +0.040 A 
ATOM      6  C   UNL     1      15.129  56.467  12.873  1.00  0.00    +0.006 A 
ATOM      7  C   UNL     1      16.455  56.082  13.122  1.00  0.00    +0.010 A 
ATOM      8  C   UNL     1      14.092  55.555  13.140  1.00  0.00    +0.010 A 
ATOM      9  C   UNL     1      16.734  54.831  13.672  1.00  0.00    +0.014 A 
ATOM     10  C   UNL     1      14.374  54.297  13.683  1.00  0.00    +0.014 A 
BRANCH   6  11
ATOM     11  C   UNL     1      14.825  57.856  12.383  1.00  0.00    +0.299 C 
BRANCH  11  12
ATOM     12  N   UNL     1      13.517  58.416  12.938  1.00  0.00    -0.322 N 
ATOM     13  C   UNL     1      13.774  60.945  12.709  1.00  0.00    +0.324 C 
ATOM     14  N   UNL     1      12.661  60.964  11.663  1.00  0.00    -0.328 N 
ATOM     15  C   UNL     1      13.630  59.751  13.681  1.00  0.00    +0.324 C 
ATOM     16  C   UNL     1      12.503  59.632  10.934  1.00  0.00    +0.324 C 
ATOM     17  C   UNL     1      12.388  58.434  11.912  1.00  0.00    +0.324 C 
ATOM     18  C   UNL     1      11.355  61.533  12.177  1.00  0.00    +0.333 C 
ATOM     19  H   UNL     1      12.958  61.650  10.946  1.00  0.00    +0.348 HD
ATOM     20  H   UNL     1      13.247  57.728  13.659  1.00  0.00    +0.348 HD
ENDBRANCH  11  12
ENDBRANCH   6  11
ENDBRANCH   1   5
BRANCH   2  21
ATOM     21  C   UNL     1      15.170  51.032  16.320  1.00  0.00    +0.043 A 
ATOM     22  C   UNL     1      16.432  50.429  16.442  1.00  0.00    +0.052 A 
ATOM     23  C   UNL     1      14.087  50.468  16.984  1.00  0.00    +0.026 A 
ATOM     24  C   UNL     1      16.642  49.279  17.220  1.00  0.00    +0.046 A 
ATOM     25  C   UNL     1      14.264  49.319  17.754  1.00  0.00    +0.008 A 
ATOM     26  C   UNL     1      15.525  48.714  17.876  1.00  0.00    -0.027 A 
ATOM     27  C   UNL     1      15.642  47.471  18.720  1.00  0.00    +0.046 C 
BRANCH  24  28
ATOM     28  N   UNL     1      17.899  48.664  17.330  1.00  0.00    -0.324 N 
ATOM     29  H   UNL     1      18.166  48.032  16.590  1.00  0.00    +0.170 HD
BRANCH  28  30
ATOM     30  C   UNL     1      18.877  48.592  18.318  1.00  0.00    +0.227 A 
ATOM     31  N   UNL     1      19.846  49.510  18.443  1.00  0.00    -0.221 NA
ATOM     32  N   UNL     1      18.771  47.524  19.124  1.00  0.00    -0.213 NA
ATOM     33  C   UNL     1      20.735  49.327  19.433  1.00  0.00    +0.117 A 
ATOM     34  C   UNL     1      19.670  47.366  20.122  1.00  0.00    +0.077 A 
ATOM     35  C   UNL     1      20.696  48.269  20.308  1.00  0.00    +0.049 A 
BRANCH  34  36
ATOM     36  C   UNL     1      19.480  46.176  20.968  1.00  0.00    +0.019 A 
ATOM     37  C   UNL     1      20.368  45.821  21.987  1.00  0.00    +0.121 A 
ATOM     38  C   UNL     1      18.378  45.321  20.805  1.00  0.00    +0.013 A 
ATOM     39  N   UNL     1      20.250  44.732  22.786  1.00  0.00    -0.264 NA
ATOM     40  C   UNL     1      18.220  44.195  21.613  1.00  0.00    +0.021 A 
ATOM     41  C   UNL     1      19.176  43.944  22.580  1.00  0.00    +0.111 A 
ENDBRANCH  34  36
ENDBRANCH  28  30
ENDBRANCH  24  28
ENDBRANCH   2  21
TORSDOF 7
ENDMDL
MODEL 4
REMARK VINA RESULT:    -9.171      2.319      2.959
REMARK INTER + INTRA:         -13.420
REMARK INTER:                 -12.978
REMARK INTRA:                  -0.442
REMARK UNBOUND:                -0.495
REMARK SMILES Cc1ccc(NC(=O)c2ccc(C[N@H+]3CC[N@H+](C)CC3)cc2)cc1Nc1nccc(-c2cccnc2)n1
REMARK SMILES IDX 7 1 6 2 8 3 9 5 12 6 11 7 21 8 10 9 22 10 13 11 14 12 16 13
REMARK SMILES IDX 17 14 15 15 19 16 20 17 18 18 5 21 23 22 4 23 24 24 3 25
REMARK SMILES IDX 2 26 1 27 25 28 26 30 27 31 37 32 28 33 30 34 29 35 31 36
REMARK SMILES IDX 36 37 32 38 35 39 33 40 34 41
REMARK H PARENT 6 4 17 19 14 20 25 29
ROOT
ATOM      1  C   UNL     1      15.866  52.731  14.066  1.00  0.00    +0.255 C 
ATOM      2  N   UNL     1      15.136  52.237  15.125  1.00  0.00    -0.322 N 
ATOM      3  O   UNL     1      16.700  52.150  13.384  1.00  0.00    -0.269 OA
ATOM      4  H   UNL     1      14.395  52.814  15.504  1.00  0.00    +0.170 HD
ENDROOT
BRANCH   1   5
ATOM      5  C   UNL     1      15.587  54.146  13.711  1.00  0.00    +0.040 A 
ATOM      6  C   UNL     1      14.951  56.742  12.843  1.00  0.00    +0.006 A 
ATOM      7  C   UNL     1      13.935  55.852  13.226  1.00  0.00    +0.010 A 
ATOM      8  C   UNL     1      16.292  56.328  12.934  1.00  0.00    +0.010 A 
ATOM      9  C   UNL     1      14.252  54.560  13.645  1.00  0.00    +0.014 A 
ATOM     10  C   UNL     1      16.609  55.034  13.363  1.00  0.00    +0.014 A 
BRANCH   6  11
ATOM     11  C   UNL     1      14.600  58.095  12.289  1.00  0.00    +0.299 C 
BRANCH  11  12
ATOM     12  N   UNL     1      13.335  58.688  12.906  1.00  0.00    -0.322 N 
ATOM     13  C   UNL     1      13.688  61.211  12.751  1.00  0.00    +0.324 C 
ATOM     14  N   UNL     1      12.543  61.311  11.745  1.00  0.00    -0.328 N 
ATOM     15  C   UNL     1      13.527  59.992  13.688  1.00  0.00    +0.324 C 
ATOM     16  C   UNL     1      12.307  60.011  10.978  1.00  0.00    +0.324 C 
ATOM     17  C   UNL     1      12.175  58.786  11.920  1.00  0.00    +0.324 C 
ATOM     18  C   UNL     1      11.279  61.913  12.322  1.00  0.00    +0.333 C 
ATOM     19  H   UNL     1      12.844  62.008  11.042  1.00  0.00    +0.348 HD
ATOM     20  H   UNL     1      13.061  57.987  13.613  1.00  0.00    +0.348 HD
ENDBRANCH  11  12
ENDBRANCH   6  11
ENDBRANCH   1   5
BRANCH   2  21
ATOM     21  C   UNL     1      15.239  50.952  15.705  1.00  0.00    +0.043 A 
ATOM     22  C   UNL     1      16.311  50.731  16.585  1.00  0.00    +0.052 A 
ATOM     23  C   UNL     1      14.356  49.911  15.445  1.00  0.00    +0.026 A 
ATOM     24  C   UNL     1      16.518  49.496  17.221  1.00  0.00    +0.046 A 
ATOM     25  C   UNL     1      14.544  48.670  16.053  1.00  0.00    +0.008 A 
ATOM     26  C   UNL     1      15.616  48.447  16.932  1.00  0.00    -0.027 A 
ATOM     27  C   UNL     1      15.761  47.080  17.548  1.00  0.00    +0.046 C 
BRANCH  24  28
ATOM     28  N   UNL     1      17.598  49.268  18.087  1.00  0.00    -0.324 N 
ATOM     29  H   UNL     1      18.515  49.527  17.754  1.00  0.00    +0.170 HD
BRANCH  28  30
ATOM     30  C   UNL     1      17.762  48.616  19.306  1.00  0.00    +0.227 A 
ATOM     31  N   UNL     1      16.802  48.581  20.241  1.00  0.00    -0.221 NA
ATOM     32  N   UNL     1      18.962  48.037  19.466  1.00  0.00    -0.213 NA
ATOM     33  C   UNL     1      17.083  47.925  21.379  1.00  0.00    +0.117 A 
ATOM     34  C   UNL     1      19.219  47.371  20.614  1.00  0.00    +0.077 A 
ATOM     35  C   UNL     1      18.280  47.297  21.621  1.00  0.00    +0.049 A 
BRANCH  34  36
ATOM     36  C   UNL     1      20.554  46.755  20.709  1.00  0.00    +0.019 A 
ATOM     37  C   UNL     1      20.938  45.940  21.777  1.00  0.00    +0.121 A 
ATOM     38  C   UNL     1      21.528  46.945  19.716  1.00  0.00    +0.013 A 
ATOM     39  N   UNL     1      22.155  45.360  21.922  1.00  0.00    -0.264 NA
ATOM     40  C   UNL     1      22.788  46.359  19.828  1.00  0.00    +0.021 A 
ATOM     41  C   UNL     1      23.052  45.582  20.941  1.00  0.00    +0.111 A 
ENDBRANCH  34  36
ENDBRANCH  28  30
ENDBRANCH  24  28
ENDBRANCH   2  21
TORSDOF 7
ENDMDL
MODEL 5
REMARK VINA RESULT:    -9.110      3.628      6.422
REMARK INTER + INTRA:         -13.334
REMARK INTER:                 -12.219
REMARK INTRA:                  -1.115
REMARK UNBOUND:                -0.495
REMARK SMILES Cc1ccc(NC(=O)c2ccc(C[N@H+]3CC[N@H+](C)CC3)cc2)cc1Nc1nccc(-c2cccnc2)n1
REMARK SMILES IDX 7 1 6 2 8 3 9 5 12 6 11 7 21 8 10 9 22 10 13 11 14 12 16 13
REMARK SMILES IDX 17 14 15 15 19 16 20 17 18 18 5 21 23 22 4 23 24 24 3 25
REMARK SMILES IDX 2 26 1 27 25 28 26 30 27 31 37 32 28 33 30 34 29 35 31 36
REMARK SMILES IDX 36 37 32 38 35 39 33 40 34 41
REMARK H PARENT 6 4 17 19 14 20 25 29
ROOT
ATOM      1  C   UNL     1      16.413  48.222  19.522  1.00  0.00    +0.255 C 
ATOM      2  N   UNL     1      17.584  47.499  19.469  1.00  0.00    -0.322 N 
ATOM      3  O   UNL     1      15.627  48.325  20.454  1.00  0.00    -0.269 OA
ATOM      4  H   UNL     1      18.183  47.620  18.661  1.00  0.00    +0.170 HD
ENDROOT
BRANCH   1   5
ATOM      5  C   UNL     1      16.079  48.976  18.286  1.00  0.00    +0.040 A 
ATOM      6  C   UNL     1      15.548  50.595  16.050  1.00  0.00    +0.006 A 
ATOM      7  C   UNL     1      16.869  50.271  16.396  1.00  0.00    +0.010 A 
ATOM      8  C   UNL     1      14.493  50.069  16.818  1.00  0.00    +0.010 A 
ATOM      9  C   UNL     1      17.131  49.478  17.513  1.00  0.00    +0.014 A 
ATOM     10  C   UNL     1      14.757  49.266  17.933  1.00  0.00    +0.014 A 
BRANCH   6  11
ATOM     11  C   UNL     1      15.275  51.538  14.912  1.00  0.00    +0.299 C 
BRANCH  11  12
ATOM     12  N   UNL     1      16.030  52.860  15.032  1.00  0.00    -0.322 N 
ATOM     13  C   UNL     1      16.812  53.352  12.653  1.00  0.00    +0.324 C 
ATOM     14  N   UNL     1      15.879  54.560  12.595  1.00  0.00    -0.328 N 
ATOM     15  C   UNL     1      17.236  53.022  14.103  1.00  0.00    +0.324 C 
ATOM     16  C   UNL     1      14.686  54.439  13.541  1.00  0.00    +0.324 C 
ATOM     17  C   UNL     1      15.114  54.080  14.987  1.00  0.00    +0.324 C 
ATOM     18  C   UNL     1      16.599  55.888  12.692  1.00  0.00    +0.333 C 
ATOM     19  H   UNL     1      15.485  54.568  11.637  1.00  0.00    +0.348 HD
ATOM     20  H   UNL     1      16.425  52.825  15.985  1.00  0.00    +0.348 HD
ENDBRANCH  11  12
ENDBRANCH   6  11
ENDBRANCH   1   5
BRANCH   2  21
ATOM     21  C   UNL     1      18.110  46.654  20.472  1.00  0.00    +0.043 A 
ATOM     22  C   UNL     1      19.286  47.077  21.114  1.00  0.00    +0.052 A 
ATOM     23  C   UNL     1      17.540  45.442  20.842  1.00  0.00    +0.026 A 
ATOM     24  C   UNL     1      19.902  46.323  22.125  1.00  0.00    +0.046 A 
ATOM     25  C   UNL     1      18.137  44.666  21.836  1.00  0.00    +0.008 A 
ATOM     26  C   UNL     1      19.313  45.087  22.477  1.00  0.00    -0.027 A 
ATOM     27  C   UNL     1      19.907  44.196  23.537  1.00  0.00    +0.046 C 
BRANCH  24  28
ATOM     28  N   UNL     1      21.086  46.735  22.755  1.00  0.00    -0.324 N 
ATOM     29  H   UNL     1      21.333  46.269  23.616  1.00  0.00    +0.170 HD
BRANCH  28  30
ATOM     30  C   UNL     1      21.995  47.772  22.563  1.00  0.00    +0.227 A 
ATOM     31  N   UNL     1      23.105  47.630  21.825  1.00  0.00    -0.221 NA
ATOM     32  N   UNL     1      21.669  48.916  23.184  1.00  0.00    -0.213 NA
ATOM     33  C   UNL     1      23.907  48.703  21.718  1.00  0.00    +0.117 A 
ATOM     34  C   UNL     1      22.484  49.987  23.053  1.00  0.00    +0.077 A 
ATOM     35  C   UNL     1      23.645  49.913  22.312  1.00  0.00    +0.049 A 
BRANCH  34  36
ATOM     36  C   UNL     1      22.051  51.207  23.756  1.00  0.00    +0.019 A 
ATOM     37  C   UNL     1      22.370  52.492  23.309  1.00  0.00    +0.121 A 
ATOM     38  C   UNL     1      21.277  51.151  24.925  1.00  0.00    +0.013 A 
ATOM     39  N   UNL     1      22.011  53.646  23.922  1.00  0.00    -0.264 NA
ATOM     40  C   UNL     1      20.884  52.318  25.580  1.00  0.00    +0.021 A 
ATOM     41  C   UNL     1      21.274  53.532  25.045  1.00  0.00    +0.111 A 
ENDBRANCH  34  36
ENDBRANCH  28  30
ENDBRANCH  24  28
ENDBRANCH   2  21
TORSDOF 7
ENDMDL
MODEL 6
REMARK VINA RESULT:    -9.080      3.204      6.142
REMARK INTER + INTRA:         -13.291
REMARK INTER:                 -12.163
REMARK INTRA:                  -1.128
REMARK UNBOUND:                -0.495
REMARK SMILES Cc1ccc(NC(=O)c2ccc(C[N@H+]3CC[N@H+](C)CC3)cc2)cc1Nc1nccc(-c2cccnc2)n1
REMARK SMILES IDX 7 1 6 2 8 3 9 5 12 6 11 7 21 8 10 9 22 10 13 11 14 12 16 13
REMARK SMILES IDX 17 14 15 15 19 16 20 17 18 18 5 21 23 22 4 23 24 24 3 25
REMARK SMILES IDX 2 26 1 27 25 28 26 30 27 31 37 32 28 33 30 34 29 35 31 36
REMARK SMILES IDX 36 37 32 38 35 39 33 40 34 41
REMARK H PARENT 6 4 17 19 14 20 25 29
ROOT
ATOM      1  C   UNL     1      16.375  48.061  19.671  1.00  0.00    +0.255 C 
ATOM      2  N   UNL     1      17.509  47.281  19.608  1.00  0.00    -0.322 N 
ATOM      3  O   UNL     1      15.610  48.213  20.614  1.00  0.00    -0.269 OA
ATOM      4  H   UNL     1      18.100  47.364  18.790  1.00  0.00    +0.170 HD
ENDROOT
BRANCH   1   5
ATOM      5  C   UNL     1      16.059  48.818  18.432  1.00  0.00    +0.040 A 
ATOM      6  C   UNL     1      15.563  50.440  16.190  1.00  0.00    +0.006 A 
ATOM      7  C   UNL     1      16.878  50.102  16.546  1.00  0.00    +0.010 A 
ATOM      8  C   UNL     1      14.497  49.926  16.950  1.00  0.00    +0.010 A 
ATOM      9  C   UNL     1      17.122  49.308  17.667  1.00  0.00    +0.014 A 
ATOM     10  C   UNL     1      14.743  49.121  18.068  1.00  0.00    +0.014 A 
BRANCH   6  11
ATOM     11  C   UNL     1      15.308  51.385  15.049  1.00  0.00    +0.299 C 
BRANCH  11  12
ATOM     12  N   UNL     1      16.121  52.674  15.144  1.00  0.00    -0.322 N 
ATOM     13  C   UNL     1      16.676  53.243  12.718  1.00  0.00    +0.324 C 
ATOM     14  N   UNL     1      15.788  54.483  12.805  1.00  0.00    -0.328 N 
ATOM     15  C   UNL     1      17.232  52.836  14.102  1.00  0.00    +0.324 C 
ATOM     16  C   UNL     1      14.693  54.361  13.862  1.00  0.00    +0.324 C 
ATOM     17  C   UNL     1      15.252  53.925  15.242  1.00  0.00    +0.324 C 
ATOM     18  C   UNL     1      16.564  55.781  12.881  1.00  0.00    +0.333 C 
ATOM     19  H   UNL     1      15.300  54.545  11.894  1.00  0.00    +0.348 HD
ATOM     20  H   UNL     1      16.609  52.585  16.049  1.00  0.00    +0.348 HD
ENDBRANCH  11  12
ENDBRANCH   6  11
ENDBRANCH   1   5
BRANCH   2  21
ATOM     21  C   UNL     1      18.008  46.422  20.613  1.00  0.00    +0.043 A 
ATOM     22  C   UNL     1      18.979  46.949  21.480  1.00  0.00    +0.052 A 
ATOM     23  C   UNL     1      17.604  45.104  20.777  1.00  0.00    +0.026 A 
ATOM     24  C   UNL     1      19.550  46.193  22.516  1.00  0.00    +0.046 A 
ATOM     25  C   UNL     1      18.163  44.324  21.790  1.00  0.00    +0.008 A 
ATOM     26  C   UNL     1      19.134  44.849  22.657  1.00  0.00    -0.027 A 
ATOM     27  C   UNL     1      19.699  43.949  23.725  1.00  0.00    +0.046 C 
BRANCH  24  28
ATOM     28  N   UNL     1      20.533  46.711  23.373  1.00  0.00    -0.324 N 
ATOM     29  H   UNL     1      20.248  46.935  24.315  1.00  0.00    +0.170 HD
BRANCH  28  30
ATOM     30  C   UNL     1      21.846  47.147  23.217  1.00  0.00    +0.227 A 
ATOM     31  N   UNL     1      22.801  46.899  24.123  1.00  0.00    -0.221 NA
ATOM     32  N   UNL     1      22.067  47.840  22.089  1.00  0.00    -0.213 NA
ATOM     33  C   UNL     1      24.029  47.378  23.861  1.00  0.00    +0.117 A 
ATOM     34  C   UNL     1      23.314  48.302  21.839  1.00  0.00    +0.077 A 
ATOM     35  C   UNL     1      24.345  48.088  22.729  1.00  0.00    +0.049 A 
BRANCH  34  36
ATOM     36  C   UNL     1      23.478  49.044  20.577  1.00  0.00    +0.019 A 
ATOM     37  C   UNL     1      24.035  50.324  20.518  1.00  0.00    +0.121 A 
ATOM     38  C   UNL     1      23.088  48.499  19.344  1.00  0.00    +0.013 A 
ATOM     39  N   UNL     1      24.197  51.056  19.389  1.00  0.00    -0.264 NA
ATOM     40  C   UNL     1      23.245  49.221  18.161  1.00  0.00    +0.021 A 
ATOM     41  C   UNL     1      23.799  50.486  18.234  1.00  0.00    +0.111 A 
ENDBRANCH  34  36
ENDBRANCH  28  30
ENDBRANCH  24  28
ENDBRANCH   2  21
TORSDOF 7
ENDMDL
MODEL 7
REMARK VINA RESULT:    -8.903      2.987     12.118
REMARK INTER + INTRA:         -13.041
REMARK INTER:                 -12.460
REMARK INTRA:                  -0.581
REMARK UNBOUND:                -0.495
REMARK SMILES Cc1ccc(NC(=O)c2ccc(C[N@H+]3CC[N@H+](C)CC3)cc2)cc1Nc1nccc(-c2cccnc2)n1
REMARK SMILES IDX 7 1 6 2 8 3 9 5 12 6 11 7 21 8 10 9 22 10 13 11 14 12 16 13
REMARK SMILES IDX 17 14 15 15 19 16 20 17 18 18 5 21 23 22 4 23 24 24 3 25
REMARK SMILES IDX 2 26 1 27 25 28 26 30 27 31 37 32 28 33 30 34 29 35 31 36
REMARK SMILES IDX 36 37 32 38 35 39 33 40 34 41
REMARK H PARENT 6 4 17 19 14 20 25 29
ROOT
ATOM      1  C   UNL     1      17.407  48.202  18.954  1.00  0.00    +0.255 C 
ATOM      2  N   UNL     1      17.467  48.563  17.626  1.00  0.00    -0.322 N 
ATOM      3  O   UNL     1      16.586  48.543  19.796  1.00  0.00    -0.269 OA
ATOM      4  H   UNL     1      18.141  48.093  17.034  1.00  0.00    +0.170 HD
ENDROOT
BRANCH   1   5
ATOM      5  C   UNL     1      18.475  47.273  19.406  1.00  0.00    +0.040 A 
ATOM      6  C   UNL     1      20.510  45.646  20.460  1.00  0.00    +0.006 A 
ATOM      7  C   UNL     1      19.246  45.686  21.068  1.00  0.00    +0.010 A 
ATOM      8  C   UNL     1      20.732  46.404  19.296  1.00  0.00    +0.010 A 
ATOM      9  C   UNL     1      18.241  46.504  20.550  1.00  0.00    +0.014 A 
ATOM     10  C   UNL     1      19.720  47.217  18.773  1.00  0.00    +0.014 A 
BRANCH   6  11
ATOM     11  C   UNL     1      21.623  44.849  21.083  1.00  0.00    +0.299 C 
BRANCH  11  12
ATOM     12  N   UNL     1      22.084  45.409  22.427  1.00  0.00    -0.322 N 
ATOM     13  C   UNL     1      24.631  45.304  22.307  1.00  0.00    +0.324 C 
ATOM     14  N   UNL     1      24.695  46.830  22.308  1.00  0.00    -0.328 N 
ATOM     15  C   UNL     1      23.355  44.781  23.006  1.00  0.00    +0.324 C 
ATOM     16  C   UNL     1      23.424  47.482  21.768  1.00  0.00    +0.324 C 
ATOM     17  C   UNL     1      22.144  46.934  22.452  1.00  0.00    +0.324 C 
ATOM     18  C   UNL     1      25.168  47.416  23.621  1.00  0.00    +0.333 C 
ATOM     19  H   UNL     1      25.449  47.082  21.645  1.00  0.00    +0.348 HD
ATOM     20  H   UNL     1      21.327  45.135  23.074  1.00  0.00    +0.348 HD
ENDBRANCH  11  12
ENDBRANCH   6  11
ENDBRANCH   1   5
BRANCH   2  21
ATOM     21  C   UNL     1      16.618  49.469  16.950  1.00  0.00    +0.043 A 
ATOM     22  C   UNL     1      17.210  50.628  16.422  1.00  0.00    +0.052 A 
ATOM     23  C   UNL     1      15.250  49.281  16.795  1.00  0.00    +0.026 A 
ATOM     24  C   UNL     1      16.469  51.600  15.732  1.00  0.00    +0.046 A 
ATOM     25  C   UNL     1      14.487  50.237  16.125  1.00  0.00    +0.008 A 
ATOM     26  C   UNL     1      15.078  51.396  15.597  1.00  0.00    -0.027 A 
ATOM     27  C   UNL     1      14.192  52.389  14.890  1.00  0.00    +0.046 C 
BRANCH  24  28
ATOM     28  N   UNL     1      17.055  52.767  15.217  1.00  0.00    -0.324 N 
ATOM     29  H   UNL     1      17.481  53.398  15.882  1.00  0.00    +0.170 HD
BRANCH  28  30
ATOM     30  C   UNL     1      17.090  53.385  13.970  1.00  0.00    +0.227 A 
ATOM     31  N   UNL     1      17.586  52.782  12.880  1.00  0.00    -0.221 NA
ATOM     32  N   UNL     1      16.595  54.632  13.957  1.00  0.00    -0.213 NA
ATOM     33  C   UNL     1      17.569  53.485  11.735  1.00  0.00    +0.117 A 
ATOM     34  C   UNL     1      16.576  55.316  12.791  1.00  0.00    +0.077 A 
ATOM     35  C   UNL     1      17.073  54.761  11.630  1.00  0.00    +0.049 A 
BRANCH  34  36
ATOM     36  C   UNL     1      16.008  56.673  12.856  1.00  0.00    +0.019 A 
ATOM     37  C   UNL     1      14.699  56.966  12.466  1.00  0.00    +0.121 A 
ATOM     38  C   UNL     1      16.754  57.765  13.328  1.00  0.00    +0.013 A 
ATOM     39  N   UNL     1      14.130  58.196  12.493  1.00  0.00    -0.264 NA
ATOM     40  C   UNL     1      16.200  59.043  13.376  1.00  0.00    +0.021 A 
ATOM     41  C   UNL     1      14.895  59.208  12.949  1.00  0.00    +0.111 A 
ENDBRANCH  34  36
ENDBRANCH  28  30
ENDBRANCH  24  28
ENDBRANCH   2  21
TORSDOF 7
ENDMDL
MODEL 8
REMARK VINA RESULT:    -8.645      2.510     10.872
REMARK INTER + INTRA:         -12.678
REMARK INTER:                 -12.201
REMARK INTRA:                  -0.477
REMARK UNBOUND:                -0.495
REMARK SMILES Cc1ccc(NC(=O)c2ccc(C[N@H+]3CC[N@H+](C)CC3)cc2)cc1Nc1nccc(-c2cccnc2)n1
REMARK SMILES IDX 7 1 6 2 8 3 9 5 12 6 11 7 21 8 10 9 22 10 13 11 14 12 16 13
REMARK SMILES IDX 17 14 15 15 19 16 20 17 18 18 5 21 23 22 4 23 24 24 3 25
REMARK SMILES IDX 2 26 1 27 25 28 26 30 27 31 37 32 28 33 30 34 29 35 31 36
REMARK SMILES IDX 36 37 32 38 35 39 33 40 34 41
REMARK H PARENT 6 4 17 19 14 20 25 29
ROOT
ATOM      1  C   UNL     1      19.343  48.171  18.538  1.00  0.00    +0.255 C 
ATOM      2  N   UNL     1      18.551  49.286  18.365  1.00  0.00    -0.322 N 
ATOM      3  O   UNL     1      19.184  47.049  18.075  1.00  0.00    -0.269 OA
ATOM      4  H   UNL     1      18.891  50.171  18.718  1.00  0.00    +0.170 HD
ENDROOT
BRANCH   1   5
ATOM      5  C   UNL     1      20.543  48.374  19.389  1.00  0.00    +0.040 A 
ATOM      6  C   UNL     1      22.720  48.967  21.065  1.00  0.00    +0.006 A 
ATOM      7  C   UNL     1      21.448  48.733  21.609  1.00  0.00    +0.010 A 
ATOM      8  C   UNL     1      22.897  48.866  19.674  1.00  0.00    +0.010 A 
ATOM      9  C   UNL     1      20.366  48.451  20.775  1.00  0.00    +0.014 A 
ATOM     10  C   UNL     1      21.813  48.574  18.839  1.00  0.00    +0.014 A 
BRANCH   6  11
ATOM     11  C   UNL     1      23.859  49.378  21.958  1.00  0.00    +0.299 C 
BRANCH  11  12
ATOM     12  N   UNL     1      23.653  50.747  22.603  1.00  0.00    -0.322 N 
ATOM     13  C   UNL     1      25.729  52.072  21.933  1.00  0.00    +0.324 C 
ATOM     14  N   UNL     1      24.864  52.994  21.074  1.00  0.00    -0.328 N 
ATOM     15  C   UNL     1      24.924  51.446  23.095  1.00  0.00    +0.324 C 
ATOM     16  C   UNL     1      23.572  52.331  20.601  1.00  0.00    +0.324 C 
ATOM     17  C   UNL     1      22.782  51.680  21.766  1.00  0.00    +0.324 C 
ATOM     18  C   UNL     1      24.657  54.367  21.678  1.00  0.00    +0.333 C 
ATOM     19  H   UNL     1      25.417  53.186  20.220  1.00  0.00    +0.348 HD
ATOM     20  H   UNL     1      23.115  50.531  23.457  1.00  0.00    +0.348 HD
ENDBRANCH  11  12
ENDBRANCH   6  11
ENDBRANCH   1   5
BRANCH   2  21
ATOM     21  C   UNL     1      17.331  49.362  17.656  1.00  0.00    +0.043 A 
ATOM     22  C   UNL     1      17.060  50.560  16.975  1.00  0.00    +0.052 A 
ATOM     23  C   UNL     1      16.396  48.335  17.609  1.00  0.00    +0.026 A 
ATOM     24  C   UNL     1      15.881  50.754  16.238  1.00  0.00    +0.046 A 
ATOM     25  C   UNL     1      15.210  48.504  16.895  1.00  0.00    +0.008 A 
ATOM     26  C   UNL     1      14.938  49.702  16.214  1.00  0.00    -0.027 A 
ATOM     27  C   UNL     1      13.635  49.818  15.467  1.00  0.00    +0.046 C 
BRANCH  24  28
ATOM     28  N   UNL     1      15.601  51.956  15.571  1.00  0.00    -0.324 N 
ATOM     29  H   UNL     1      14.785  52.469  15.873  1.00  0.00    +0.170 HD
BRANCH  28  30
ATOM     30  C   UNL     1      16.109  52.600  14.446  1.00  0.00    +0.227 A 
ATOM     31  N   UNL     1      17.068  52.064  13.678  1.00  0.00    -0.221 NA
ATOM     32  N   UNL     1      15.563  53.802  14.204  1.00  0.00    -0.213 NA
ATOM     33  C   UNL     1      17.479  52.786  12.622  1.00  0.00    +0.117 A 
ATOM     34  C   UNL     1      15.983  54.506  13.128  1.00  0.00    +0.077 A 
ATOM     35  C   UNL     1      16.969  54.018  12.297  1.00  0.00    +0.049 A 
BRANCH  34  36
ATOM     36  C   UNL     1      15.329  55.810  12.925  1.00  0.00    +0.019 A 
ATOM     37  C   UNL     1      16.036  57.015  12.888  1.00  0.00    +0.121 A 
ATOM     38  C   UNL     1      13.941  55.921  12.746  1.00  0.00    +0.013 A 
ATOM     39  N   UNL     1      15.485  58.242  12.717  1.00  0.00    -0.264 NA
ATOM     40  C   UNL     1      13.340  57.166  12.562  1.00  0.00    +0.021 A 
ATOM     41  C   UNL     1      14.148  58.289  12.557  1.00  0.00    +0.111 A 
ENDBRANCH  34  36
ENDBRANCH  28  30
ENDBRANCH  24  28
ENDBRANCH   2  21
TORSDOF 7
ENDMDL
