MODEL 1
REMARK VINA RESULT:   -12.938      0.000      0.000
REMARK INTER + INTRA:         -18.692
REMARK INTER:                 -18.232
REMARK INTRA:                  -0.460
REMARK UNBOUND:                -0.460
REMARK SMILES Cc1ccc(NC(=O)c2ccc(C[N@H+]3CC[N@@H+](C)CC3)cc2)cc1Nc1nccc(-c2cccnc2)n1
REMARK SMILES IDX 7 1 6 2 8 3 9 5 12 6 11 7 21 8 10 9 22 10 13 11 14 12 19 13
REMARK SMILES IDX 17 14 20 15 16 16 15 17 18 18 5 21 23 22 4 23 24 24 3 25
REMARK SMILES IDX 2 26 1 27 25 28 26 30 27 31 37 32 28 33 30 34 29 35 31 36
REMARK SMILES IDX 36 37 32 38 35 39 33 40 34 41
REMARK H PARENT 6 4 17 19 14 20 25 29
ROOT
ATOM      1  C   UNL     1      15.628  51.973  15.503  1.00  0.00    +0.255 C 
ATOM      2  N   UNL     1      16.410  51.799  14.385  1.00  0.00    -0.322 N 
ATOM      3  O   UNL     1      14.951  52.938  15.834  1.00  0.00    -0.269 OA
ATOM      4  H   UNL     1      16.841  50.893  14.242  1.00  0.00    +0.170 HD
ENDROOT
BRANCH   1   5
ATOM      5  C   UNL     1      15.630  50.838  16.450  1.00  0.00    +0.040 A 
ATOM      6  C   UNL     1      15.627  48.437  17.890  1.00  0.00    +0.006 A 
ATOM      7  C   UNL     1      16.829  48.961  17.390  1.00  0.00    +0.010 A 
ATOM      8  C   UNL     1      14.444  49.186  17.748  1.00  0.00    +0.010 A 
ATOM      9  C   UNL     1      16.825  50.144  16.651  1.00  0.00    +0.014 A 
ATOM     10  C   UNL     1      14.443  50.381  17.024  1.00  0.00    +0.014 A 
BRANCH   6  11
ATOM     11  C   UNL     1      15.601  47.080  18.533  1.00  0.00    +0.299 C 
BRANCH  11  12
ATOM     12  N   UNL     1      15.554  47.080  20.065  1.00  0.00    -0.322 N 
ATOM     13  C   UNL     1      17.145  45.348  21.118  1.00  0.00    +0.324 C 
ATOM     14  N   UNL     1      17.819  46.461  21.906  1.00  0.00    -0.328 N 
ATOM     15  C   UNL     1      15.689  45.717  20.734  1.00  0.00    +0.324 C 
ATOM     16  C   UNL     1      17.780  47.791  21.168  1.00  0.00    +0.324 C 
ATOM     17  C   UNL     1      16.338  48.189  20.760  1.00  0.00    +0.324 C 
ATOM     18  C   UNL     1      19.251  46.083  22.256  1.00  0.00    +0.333 C 
ATOM     19  H   UNL     1      17.344  46.567  22.816  1.00  0.00    +0.348 HD
ATOM     20  H   UNL     1      14.566  47.341  20.221  1.00  0.00    +0.348 HD
ENDBRANCH  11  12
ENDBRANCH   6  11
ENDBRANCH   1   5
BRANCH   2  21
ATOM     21  C   UNL     1      16.635  52.732  13.350  1.00  0.00    +0.043 A 
ATOM     22  C   UNL     1      15.828  53.880  13.338  1.00  0.00    +0.052 A 
ATOM     23  C   UNL     1      17.592  52.570  12.355  1.00  0.00    +0.026 A 
ATOM     24  C   UNL     1      15.959  54.880  12.359  1.00  0.00    +0.046 A 
ATOM     25  C   UNL     1      17.735  53.540  11.362  1.00  0.00    +0.008 A 
ATOM     26  C   UNL     1      16.927  54.687  11.347  1.00  0.00    -0.027 A 
ATOM     27  C   UNL     1      17.130  55.691  10.241  1.00  0.00    +0.046 C 
BRANCH  24  28
ATOM     28  N   UNL     1      15.139  56.017  12.333  1.00  0.00    -0.324 N 
ATOM     29  H   UNL     1      14.241  55.926  11.878  1.00  0.00    +0.170 HD
BRANCH  28  30
ATOM     30  C   UNL     1      15.309  57.361  12.657  1.00  0.00    +0.227 A 
ATOM     31  N   UNL     1      16.459  57.844  13.148  1.00  0.00    -0.221 NA
ATOM     32  N   UNL     1      14.224  58.122  12.443  1.00  0.00    -0.213 NA
ATOM     33  C   UNL     1      16.496  59.158  13.426  1.00  0.00    +0.117 A 
ATOM     34  C   UNL     1      14.290  59.445  12.718  1.00  0.00    +0.077 A 
ATOM     35  C   UNL     1      15.439  60.012  13.229  1.00  0.00    +0.049 A 
BRANCH  34  36
ATOM     36  C   UNL     1      13.064  60.214  12.446  1.00  0.00    +0.019 A 
ATOM     37  C   UNL     1      11.949  59.660  11.814  1.00  0.00    +0.121 A 
ATOM     38  C   UNL     1      12.940  61.562  12.817  1.00  0.00    +0.013 A 
ATOM     39  N   UNL     1      10.801  60.323  11.527  1.00  0.00    -0.264 NA
ATOM     40  C   UNL     1      11.771  62.274  12.544  1.00  0.00    +0.021 A 
ATOM     41  C   UNL     1      10.739  61.616  11.901  1.00  0.00    +0.111 A 
ENDBRANCH  34  36
ENDBRANCH  28  30
ENDBRANCH  24  28
ENDBRANCH   2  21
TORSDOF 7
ENDMDL
