REMARK SMILES C[NH+](C)CC[C@H](CSc1ccccc1)Nc1ccc(S(=O)(=O)NC(=O)c2ccc(N3CC[NH+](Cc4ccccc4-c4ccc(Cl)cc4)CC3)cc2)cc1[N+](=O)[O-]
REMARK SMILES IDX 20 1 21 2 22 3 23 4 24 5 25 6 26 8 29 9 28 10 50 11 27 12
REMARK SMILES IDX 51 13 30 14 32 15 33 16 31 17 48 18 49 19 34 21 35 22 36 23
REMARK SMILES IDX 40 24 37 25 39 26 38 27 41 28 42 29 47 30 43 31 46 32 44 33
REMARK SMILES IDX 45 34 19 35 18 36 52 37 17 38 53 39 16 40 54 41 55 42 56 43
REMARK SMILES IDX 15 44 6 46 5 47 4 48 2 49 1 50 3 51 7 53 8 54 9 55 10 56
REMARK SMILES IDX 14 57 11 58 13 59 12 60
REMARK H PARENT 23 7 33 20 15 45 2 52
ROOT
ATOM      1  S   UNL     1       1.532  -4.609   1.791  1.00  0.00    +0.264 S 
ATOM      2  O   UNL     1       1.443  -5.108   3.143  1.00  0.00    -0.201 OA
ATOM      3  O   UNL     1       1.571  -5.517   0.663  1.00  0.00    -0.201 OA
ENDROOT
BRANCH   1   4
ATOM      4  N   UNL     1       0.228  -3.622   1.502  1.00  0.00    -0.245 N 
ATOM      5  C   UNL     1      -0.105  -2.486   2.244  1.00  0.00    +0.264 C 
ATOM      6  O   UNL     1       0.669  -1.931   3.006  1.00  0.00    -0.268 OA
ATOM      7  H   UNL     1      -0.305  -3.920   0.692  1.00  0.00    +0.183 HD
BRANCH   5   8
ATOM      8  C   UNL     1      -1.483  -1.957   2.032  1.00  0.00    +0.040 A 
ATOM      9  C   UNL     1      -4.103  -0.870   1.754  1.00  0.00    +0.037 A 
ATOM     10  C   UNL     1      -3.815  -2.203   1.411  1.00  0.00    +0.027 A 
ATOM     11  C   UNL     1      -3.039  -0.098   2.243  1.00  0.00    +0.027 A 
ATOM     12  C   UNL     1      -2.528  -2.745   1.544  1.00  0.00    +0.016 A 
ATOM     13  C   UNL     1      -1.748  -0.630   2.381  1.00  0.00    +0.016 A 
BRANCH   9  14
ATOM     14  N   UNL     1      -5.421  -0.397   1.653  1.00  0.00    -0.360 N 
ATOM     15  C   UNL     1      -7.307   0.993   2.476  1.00  0.00    +0.284 C 
ATOM     16  N   UNL     1      -7.907   0.984   1.076  1.00  0.00    -0.328 N 
ATOM     17  C   UNL     1      -5.775   0.825   2.406  1.00  0.00    +0.178 C 
ATOM     18  C   UNL     1      -7.535  -0.296   0.339  1.00  0.00    +0.284 C 
ATOM     19  C   UNL     1      -6.000  -0.471   0.292  1.00  0.00    +0.178 C 
ATOM     20  H   UNL     1      -7.473   1.763   0.568  1.00  0.00    +0.348 HD
BRANCH  16  21
ATOM     21  C   UNL     1      -9.391   1.250   1.101  1.00  0.00    +0.299 C 
BRANCH  21  22
ATOM     22  C   UNL     1     -10.009   1.501  -0.256  1.00  0.00    +0.014 A 
ATOM     23  C   UNL     1     -10.985   0.595  -0.718  1.00  0.00    +0.010 A 
ATOM     24  C   UNL     1      -9.652   2.607  -1.069  1.00  0.00    -0.010 A 
ATOM     25  C   UNL     1     -11.594   0.769  -1.960  1.00  0.00    +0.001 A 
ATOM     26  C   UNL     1     -10.281   2.758  -2.318  1.00  0.00    +0.009 A 
ATOM     27  C   UNL     1     -11.241   1.848  -2.760  1.00  0.00    +0.001 A 
BRANCH  24  28
ATOM     28  C   UNL     1      -8.639   3.595  -0.669  1.00  0.00    -0.018 A 
ATOM     29  C   UNL     1      -8.886   4.513   0.364  1.00  0.00    +0.010 A 
ATOM     30  C   UNL     1      -7.388   3.628  -1.311  1.00  0.00    +0.010 A 
ATOM     31  C   UNL     1      -7.898   5.413   0.772  1.00  0.00    +0.021 A 
ATOM     32  C   UNL     1      -6.400   4.528  -0.905  1.00  0.00    +0.021 A 
ATOM     33  C   UNL     1      -6.656   5.412   0.140  1.00  0.00    +0.041 A 
ATOM     34 Cl   UNL     1      -5.431   6.498   0.658  1.00  0.00    -0.084 Cl
ENDBRANCH  24  28
ENDBRANCH  21  22
ENDBRANCH  16  21
ENDBRANCH   9  14
ENDBRANCH   5   8
ENDBRANCH   1   4
BRANCH   1  35
ATOM     35  C   UNL     1       2.955  -3.556   1.662  1.00  0.00    +0.094 A 
ATOM     36  C   UNL     1       3.583  -3.381   0.430  1.00  0.00    +0.025 A 
ATOM     37  C   UNL     1       3.511  -3.007   2.815  1.00  0.00    +0.110 A 
ATOM     38  C   UNL     1       4.765  -2.627   0.344  1.00  0.00    +0.034 A 
ATOM     39  C   UNL     1       4.685  -2.243   2.711  1.00  0.00    +0.293 A 
ATOM     40  C   UNL     1       5.338  -2.011   1.469  1.00  0.00    +0.113 A 
BRANCH  39  41
ATOM     41  N   UNL     1       5.225  -1.674   3.952  1.00  0.00    +0.065 N 
ATOM     42  O   UNL     1       5.038  -2.299   5.003  1.00  0.00    -0.258 OA
ATOM     43  O   UNL     1       5.845  -0.599   3.868  1.00  0.00    -0.258 OA
ENDBRANCH  39  41
BRANCH  40  44
ATOM     44  N   UNL     1       6.571  -1.347   1.401  1.00  0.00    -0.376 N 
ATOM     45  H   UNL     1       6.689  -0.720   2.209  1.00  0.00    +0.161 HD
BRANCH  44  46
ATOM     46  C   UNL     1       7.153  -0.796   0.168  1.00  0.00    +0.095 C 
BRANCH  46  47
ATOM     47  C   UNL     1       8.666  -0.624   0.460  1.00  0.00    +0.087 C 
BRANCH  47  48
ATOM     48  C   UNL     1       9.481  -0.338  -0.799  1.00  0.00    +0.263 C 
BRANCH  48  49
ATOM     49  N   UNL     1      10.970  -0.453  -0.523  1.00  0.00    -0.340 N 
ATOM     50  C   UNL     1      11.507   0.615   0.393  1.00  0.00    +0.332 C 
ATOM     51  C   UNL     1      11.755  -0.500  -1.810  1.00  0.00    +0.332 C 
ATOM     52  H   UNL     1      11.132  -1.357  -0.056  1.00  0.00    +0.347 HD
ENDBRANCH  48  49
ENDBRANCH  47  48
ENDBRANCH  46  47
BRANCH  46  53
ATOM     53  C   UNL     1       6.481   0.550  -0.203  1.00  0.00    +0.100 C 
BRANCH  53  54
ATOM     54  S   UNL     1       5.432   0.429  -1.702  1.00  0.00    -0.124 SA
BRANCH  54  55
ATOM     55  C   UNL     1       6.694   0.399  -2.958  1.00  0.00    +0.007 A 
ATOM     56  C   UNL     1       7.402   1.559  -3.286  1.00  0.00    +0.015 A 
ATOM     57  C   UNL     1       6.971  -0.791  -3.638  1.00  0.00    +0.015 A 
ATOM     58  C   UNL     1       8.398   1.523  -4.264  1.00  0.00    +0.001 A 
ATOM     59  C   UNL     1       7.969  -0.827  -4.616  1.00  0.00    +0.001 A 
ATOM     60  C   UNL     1       8.684   0.329  -4.924  1.00  0.00    +0.000 A 
ENDBRANCH  54  55
ENDBRANCH  53  54
ENDBRANCH  46  53
ENDBRANCH  44  46
ENDBRANCH  40  44
ENDBRANCH   1  35
TORSDOF 16
