MODEL 1
REMARK VINA RESULT:    -9.718      0.000      0.000
REMARK INTER + INTRA:         -22.917
REMARK INTER:                 -19.376
REMARK INTRA:                  -3.541
REMARK UNBOUND:                -3.541
REMARK SMILES CC1(C)CCC(c2ccc(Cl)cc2)=C(C[NH+]2CCN(c3ccc(C(=O)NS(=O)(=O)c4ccc(N[C@H](CC[NH+]5CCOCC5)CSc5ccccc5)c(S(=O)(=O)C(F)(F)F)c4)cc3)CC2)C1
REMARK SMILES IDX 27 1 28 2 29 3 30 4 33 5 52 6 32 7 60 8 31 9 34 10 35 12
REMARK SMILES IDX 36 13 37 14 38 15 39 16 43 17 40 18 42 19 41 20 44 22 45 23
REMARK SMILES IDX 46 24 47 25 51 26 48 27 50 28 49 29 53 30 54 31 55 32 56 33
REMARK SMILES IDX 57 34 58 35 59 36 26 37 24 38 25 39 23 41 22 42 61 43 21 44
REMARK SMILES IDX 62 45 20 46 19 47 18 48 63 49 17 50 64 51 16 52 15 54 14 55
REMARK SMILES IDX 6 56 65 57 5 58 2 59 4 60 1 61 3 62 7 63 8 64 13 65 9 66
REMARK SMILES IDX 12 67 10 68 11 69
REMARK H PARENT 34 11 38 21 26 40 16 53
ROOT
ATOM      1  S   UNL     1     -16.492 -18.785  11.573  1.00  0.00    +0.264 S 
ATOM      2  O   UNL     1     -16.984 -18.616  12.923  1.00  0.00    -0.201 OA
ATOM      3  O   UNL     1     -17.355 -18.615  10.429  1.00  0.00    -0.201 OA
ENDROOT
BRANCH   1   4
ATOM      4  C   UNL     1     -15.753 -20.398  11.508  1.00  0.00    +0.089 A 
ATOM      5  C   UNL     1     -14.657 -22.997  11.504  1.00  0.00    +0.054 A 
ATOM      6  C   UNL     1     -14.057 -21.963  12.245  1.00  0.00    +0.101 A 
ATOM      7  C   UNL     1     -15.802 -22.685  10.746  1.00  0.00    +0.028 A 
ATOM      8  C   UNL     1     -14.623 -20.674  12.277  1.00  0.00    +0.045 A 
ATOM      9  C   UNL     1     -16.342 -21.397  10.736  1.00  0.00    +0.024 A 
BRANCH   5  10
ATOM     10  N   UNL     1     -14.209 -24.340  11.561  1.00  0.00    -0.380 N 
ATOM     11  H   UNL     1     -15.054 -24.865  11.825  1.00  0.00    +0.160 HD
BRANCH  10  12
ATOM     12  C   UNL     1     -13.726 -24.917  10.273  1.00  0.00    +0.095 C 
BRANCH  12  13
ATOM     13  C   UNL     1     -13.754 -26.459  10.419  1.00  0.00    +0.087 C 
BRANCH  13  14
ATOM     14  C   UNL     1     -13.846 -27.028  11.836  1.00  0.00    +0.264 C 
BRANCH  14  15
ATOM     15  N   UNL     1     -13.770 -28.532  11.907  1.00  0.00    -0.331 N 
ATOM     16  C   UNL     1     -13.490 -29.124  10.523  1.00  0.00    +0.291 C 
ATOM     17  C   UNL     1     -15.003 -29.196  12.506  1.00  0.00    +0.291 C 
ATOM     18  C   UNL     1     -13.448 -30.654  10.578  1.00  0.00    +0.221 C 
ATOM     19  C   UNL     1     -14.857 -30.721  12.469  1.00  0.00    +0.221 C 
ATOM     20  O   UNL     1     -14.658 -31.181  11.129  1.00  0.00    -0.370 OA
ATOM     21  H   UNL     1     -12.954 -28.796  12.506  1.00  0.00    +0.348 HD
ENDBRANCH  14  15
ENDBRANCH  13  14
ENDBRANCH  12  13
BRANCH  12  22
ATOM     22  C   UNL     1     -12.347 -24.337   9.874  1.00  0.00    +0.100 C 
BRANCH  22  23
ATOM     23  S   UNL     1     -10.908 -25.193  10.607  1.00  0.00    -0.124 SA
BRANCH  23  24
ATOM     24  C   UNL     1      -9.565 -24.254   9.895  1.00  0.00    +0.007 A 
ATOM     25  C   UNL     1      -8.238 -24.432  10.299  1.00  0.00    +0.015 A 
ATOM     26  C   UNL     1      -9.858 -23.314   8.901  1.00  0.00    +0.015 A 
ATOM     27  C   UNL     1      -7.221 -23.652   9.743  1.00  0.00    +0.001 A 
ATOM     28  C   UNL     1      -8.840 -22.537   8.343  1.00  0.00    +0.001 A 
ATOM     29  C   UNL     1      -7.524 -22.702   8.769  1.00  0.00    +0.000 A 
ENDBRANCH  23  24
ENDBRANCH  22  23
ENDBRANCH  12  22
ENDBRANCH  10  12
ENDBRANCH   5  10
BRANCH   6  30
ATOM     30  S   UNL     1     -12.543 -22.182  13.175  1.00  0.00    +0.278 S 
ATOM     31  O   UNL     1     -12.725 -21.440  14.410  1.00  0.00    -0.214 OA
ATOM     32  O   UNL     1     -12.233 -23.609  13.255  1.00  0.00    -0.214 OA
BRANCH  30  33
ATOM     33  C   UNL     1     -11.324 -21.361  12.092  1.00  0.00    +0.501 C 
ATOM     34  F   UNL     1     -11.054 -20.092  12.512  1.00  0.00    -0.156 F 
ATOM     35  F   UNL     1     -11.763 -21.256  10.808  1.00  0.00    -0.156 F 
ATOM     36  F   UNL     1     -10.128 -22.013  12.048  1.00  0.00    -0.156 F 
ENDBRANCH  30  33
ENDBRANCH   6  30
ENDBRANCH   1   4
BRANCH   1  37
ATOM     37  N   UNL     1     -15.223 -17.721  11.433  1.00  0.00    -0.245 N 
ATOM     38  C   UNL     1     -15.214 -16.410  11.917  1.00  0.00    +0.264 C 
ATOM     39  O   UNL     1     -16.232 -15.817  12.240  1.00  0.00    -0.268 OA
ATOM     40  H   UNL     1     -14.442 -18.130  10.931  1.00  0.00    +0.183 HD
BRANCH  38  41
ATOM     41  C   UNL     1     -13.880 -15.742  11.976  1.00  0.00    +0.040 A 
ATOM     42  C   UNL     1     -12.887 -16.091  12.894  1.00  0.00    +0.016 A 
ATOM     43  C   UNL     1     -13.623 -14.689  11.091  1.00  0.00    +0.016 A 
ATOM     44  C   UNL     1     -11.662 -15.404  12.907  1.00  0.00    +0.027 A 
ATOM     45  C   UNL     1     -12.398 -14.005  11.122  1.00  0.00    +0.027 A 
ATOM     46  C   UNL     1     -11.383 -14.349  12.024  1.00  0.00    +0.037 A 
BRANCH  46  47
ATOM     47  N   UNL     1     -10.178 -13.673  12.092  1.00  0.00    -0.360 N 
ATOM     48  C   UNL     1     -10.075 -12.289  12.582  1.00  0.00    +0.178 C 
ATOM     49  C   UNL     1      -9.000 -14.174  11.357  1.00  0.00    +0.178 C 
ATOM     50  C   UNL     1      -9.744 -11.322  11.427  1.00  0.00    +0.284 C 
ATOM     51  C   UNL     1      -8.660 -13.222  10.187  1.00  0.00    +0.284 C 
ATOM     52  N   UNL     1      -8.505 -11.773  10.649  1.00  0.00    -0.329 N 
ATOM     53  H   UNL     1      -8.480 -11.203   9.798  1.00  0.00    +0.348 HD
BRANCH  52  54
ATOM     54  C   UNL     1      -7.210 -11.489  11.378  1.00  0.00    +0.295 C 
BRANCH  54  55
ATOM     55  C   UNL     1      -6.612 -10.144  11.034  1.00  0.00    -0.012 C 
ATOM     56  C   UNL     1      -6.887  -8.980  11.672  1.00  0.00    -0.036 C 
ATOM     57  C   UNL     1      -5.705 -10.157   9.810  1.00  0.00    +0.043 C 
ATOM     58  C   UNL     1      -6.294  -7.644  11.264  1.00  0.00    +0.037 C 
ATOM     59  C   UNL     1      -4.794  -8.920   9.644  1.00  0.00    -0.031 C 
ATOM     60  C   UNL     1      -5.636  -7.654   9.883  1.00  0.00    +0.011 C 
ATOM     61  C   UNL     1      -4.229  -8.895   8.211  1.00  0.00    +0.011 C 
ATOM     62  C   UNL     1      -3.605  -8.990  10.623  1.00  0.00    +0.011 C 
BRANCH  56  63
ATOM     63  C   UNL     1      -7.797  -8.893  12.830  1.00  0.00    -0.022 A 
ATOM     64  C   UNL     1      -7.478  -9.534  14.035  1.00  0.00    +0.010 A 
ATOM     65  C   UNL     1      -9.006  -8.191  12.725  1.00  0.00    +0.010 A 
ATOM     66  C   UNL     1      -8.339  -9.442  15.133  1.00  0.00    +0.021 A 
ATOM     67  C   UNL     1      -9.868  -8.102  13.823  1.00  0.00    +0.021 A 
ATOM     68  C   UNL     1      -9.526  -8.721  15.024  1.00  0.00    +0.041 A 
ATOM     69 Cl   UNL     1     -10.578  -8.597  16.378  1.00  0.00    -0.084 Cl
ENDBRANCH  56  63
ENDBRANCH  54  55
ENDBRANCH  52  54
ENDBRANCH  46  47
ENDBRANCH  38  41
ENDBRANCH   1  37
TORSDOF 17
ENDMDL
MODEL 2
REMARK VINA RESULT:    -9.622      2.450      3.729
REMARK INTER + INTRA:         -22.726
REMARK INTER:                 -19.433
REMARK INTRA:                  -3.294
REMARK UNBOUND:                -3.541
REMARK SMILES CC1(C)CCC(c2ccc(Cl)cc2)=C(C[NH+]2CCN(c3ccc(C(=O)NS(=O)(=O)c4ccc(N[C@H](CC[NH+]5CCOCC5)CSc5ccccc5)c(S(=O)(=O)C(F)(F)F)c4)cc3)CC2)C1
REMARK SMILES IDX 27 1 28 2 29 3 30 4 33 5 52 6 32 7 60 8 31 9 34 10 35 12
REMARK SMILES IDX 36 13 37 14 38 15 39 16 43 17 40 18 42 19 41 20 44 22 45 23
REMARK SMILES IDX 46 24 47 25 51 26 48 27 50 28 49 29 53 30 54 31 55 32 56 33
REMARK SMILES IDX 57 34 58 35 59 36 26 37 24 38 25 39 23 41 22 42 61 43 21 44
REMARK SMILES IDX 62 45 20 46 19 47 18 48 63 49 17 50 64 51 16 52 15 54 14 55
REMARK SMILES IDX 6 56 65 57 5 58 2 59 4 60 1 61 3 62 7 63 8 64 13 65 9 66
REMARK SMILES IDX 12 67 10 68 11 69
REMARK H PARENT 34 11 38 21 26 40 16 53
ROOT
ATOM      1  S   UNL     1     -14.450 -16.050  12.713  1.00  0.00    +0.264 S 
ATOM      2  O   UNL     1     -14.928 -15.750  14.045  1.00  0.00    -0.201 OA
ATOM      3  O   UNL     1     -15.154 -15.595  11.538  1.00  0.00    -0.201 OA
ENDROOT
BRANCH   1   4
ATOM      4  C   UNL     1     -14.264 -17.813  12.632  1.00  0.00    +0.089 A 
ATOM      5  C   UNL     1     -13.990 -20.608  12.370  1.00  0.00    +0.054 A 
ATOM      6  C   UNL     1     -15.234 -20.033  12.681  1.00  0.00    +0.101 A 
ATOM      7  C   UNL     1     -12.884 -19.748  12.222  1.00  0.00    +0.028 A 
ATOM      8  C   UNL     1     -15.381 -18.635  12.776  1.00  0.00    +0.045 A 
ATOM      9  C   UNL     1     -13.014 -18.365  12.361  1.00  0.00    +0.024 A 
BRANCH   5  10
ATOM     10  N   UNL     1     -13.828 -21.993  12.120  1.00  0.00    -0.380 N 
ATOM     11  H   UNL     1     -14.689 -22.409  12.502  1.00  0.00    +0.160 HD
BRANCH  10  12
ATOM     12  C   UNL     1     -13.758 -22.389  10.684  1.00  0.00    +0.095 C 
BRANCH  12  13
ATOM     13  C   UNL     1     -14.649 -23.643  10.505  1.00  0.00    +0.087 C 
BRANCH  13  14
ATOM     14  C   UNL     1     -13.979 -24.909   9.966  1.00  0.00    +0.264 C 
BRANCH  14  15
ATOM     15  N   UNL     1     -14.095 -26.107  10.873  1.00  0.00    -0.331 N 
ATOM     16  C   UNL     1     -13.704 -25.738  12.307  1.00  0.00    +0.291 C 
ATOM     17  C   UNL     1     -13.291 -27.319  10.420  1.00  0.00    +0.291 C 
ATOM     18  C   UNL     1     -13.783 -26.959  13.229  1.00  0.00    +0.221 C 
ATOM     19  C   UNL     1     -13.419 -28.454  11.441  1.00  0.00    +0.221 C 
ATOM     20  O   UNL     1     -12.976 -28.030  12.733  1.00  0.00    -0.370 OA
ATOM     21  H   UNL     1     -15.099 -26.398  10.912  1.00  0.00    +0.348 HD
ENDBRANCH  14  15
ENDBRANCH  13  14
ENDBRANCH  12  13
BRANCH  12  22
ATOM     22  C   UNL     1     -12.293 -22.574  10.217  1.00  0.00    +0.100 C 
BRANCH  22  23
ATOM     23  S   UNL     1     -11.133 -23.120  11.520  1.00  0.00    -0.124 SA
BRANCH  23  24
ATOM     24  C   UNL     1      -9.625 -23.281  10.574  1.00  0.00    +0.007 A 
ATOM     25  C   UNL     1      -9.611 -23.826   9.285  1.00  0.00    +0.015 A 
ATOM     26  C   UNL     1      -8.425 -22.845  11.147  1.00  0.00    +0.015 A 
ATOM     27  C   UNL     1      -8.405 -23.967   8.594  1.00  0.00    +0.001 A 
ATOM     28  C   UNL     1      -7.221 -22.983  10.453  1.00  0.00    +0.001 A 
ATOM     29  C   UNL     1      -7.211 -23.550   9.180  1.00  0.00    +0.000 A 
ENDBRANCH  23  24
ENDBRANCH  22  23
ENDBRANCH  12  22
ENDBRANCH  10  12
ENDBRANCH   5  10
BRANCH   6  30
ATOM     30  S   UNL     1     -16.706 -21.002  12.998  1.00  0.00    +0.278 S 
ATOM     31  O   UNL     1     -16.237 -22.285  13.493  1.00  0.00    -0.214 OA
ATOM     32  O   UNL     1     -17.621 -20.223  13.832  1.00  0.00    -0.214 OA
BRANCH  30  33
ATOM     33  C   UNL     1     -17.409 -21.165  11.322  1.00  0.00    +0.501 C 
ATOM     34  F   UNL     1     -16.634 -20.540  10.390  1.00  0.00    -0.156 F 
ATOM     35  F   UNL     1     -18.648 -20.610  11.226  1.00  0.00    -0.156 F 
ATOM     36  F   UNL     1     -17.525 -22.462  10.918  1.00  0.00    -0.156 F 
ENDBRANCH  30  33
ENDBRANCH   6  30
ENDBRANCH   1   4
BRANCH   1  37
ATOM     37  N   UNL     1     -12.901 -15.448  12.659  1.00  0.00    -0.245 N 
ATOM     38  C   UNL     1     -12.219 -15.084  11.495  1.00  0.00    +0.264 C 
ATOM     39  O   UNL     1     -12.578 -15.433  10.381  1.00  0.00    -0.268 OA
ATOM     40  H   UNL     1     -12.489 -15.387  13.584  1.00  0.00    +0.183 HD
BRANCH  38  41
ATOM     41  C   UNL     1     -10.980 -14.272  11.688  1.00  0.00    +0.040 A 
ATOM     42  C   UNL     1     -10.829 -13.336  12.713  1.00  0.00    +0.016 A 
ATOM     43  C   UNL     1      -9.932 -14.432  10.776  1.00  0.00    +0.016 A 
ATOM     44  C   UNL     1      -9.643 -12.591  12.821  1.00  0.00    +0.027 A 
ATOM     45  C   UNL     1      -8.756 -13.673  10.891  1.00  0.00    +0.027 A 
ATOM     46  C   UNL     1      -8.577 -12.740  11.920  1.00  0.00    +0.037 A 
BRANCH  46  47
ATOM     47  N   UNL     1      -7.440 -11.962  12.038  1.00  0.00    -0.360 N 
ATOM     48  C   UNL     1      -7.483 -10.491  12.018  1.00  0.00    +0.178 C 
ATOM     49  C   UNL     1      -6.104 -12.559  11.841  1.00  0.00    +0.178 C 
ATOM     50  C   UNL     1      -6.865  -9.943  10.715  1.00  0.00    +0.284 C 
ATOM     51  C   UNL     1      -5.474 -12.029  10.533  1.00  0.00    +0.284 C 
ATOM     52  N   UNL     1      -5.460 -10.501  10.476  1.00  0.00    -0.329 N 
ATOM     53  H   UNL     1      -5.215 -10.253   9.513  1.00  0.00    +0.348 HD
BRANCH  52  54
ATOM     54  C   UNL     1      -4.409  -9.857  11.352  1.00  0.00    +0.295 C 
BRANCH  54  55
ATOM     55  C   UNL     1      -3.709  -8.693  10.689  1.00  0.00    -0.012 C 
ATOM     56  C   UNL     1      -3.918  -7.386  10.981  1.00  0.00    -0.036 C 
ATOM     57  C   UNL     1      -2.772  -9.090   9.556  1.00  0.00    +0.043 C 
ATOM     58  C   UNL     1      -3.222  -6.247  10.259  1.00  0.00    +0.037 C 
ATOM     59  C   UNL     1      -1.772  -8.001   9.107  1.00  0.00    -0.031 C 
ATOM     60  C   UNL     1      -2.529  -6.668   8.962  1.00  0.00    +0.011 C 
ATOM     61  C   UNL     1      -1.168  -8.396   7.746  1.00  0.00    +0.011 C 
ATOM     62  C   UNL     1      -0.618  -7.876  10.122  1.00  0.00    +0.011 C 
BRANCH  56  63
ATOM     63  C   UNL     1      -4.851  -6.936  12.031  1.00  0.00    -0.022 A 
ATOM     64  C   UNL     1      -6.200  -6.698  11.729  1.00  0.00    +0.010 A 
ATOM     65  C   UNL     1      -4.391  -6.712  13.337  1.00  0.00    +0.010 A 
ATOM     66  C   UNL     1      -7.084  -6.280  12.728  1.00  0.00    +0.021 A 
ATOM     67  C   UNL     1      -5.275  -6.291  14.334  1.00  0.00    +0.021 A 
ATOM     68  C   UNL     1      -6.620  -6.085  14.027  1.00  0.00    +0.041 A 
ATOM     69 Cl   UNL     1      -7.709  -5.584  15.258  1.00  0.00    -0.084 Cl
ENDBRANCH  56  63
ENDBRANCH  54  55
ENDBRANCH  52  54
ENDBRANCH  46  47
ENDBRANCH  38  41
ENDBRANCH   1  37
TORSDOF 17
ENDMDL
MODEL 3
REMARK VINA RESULT:    -8.955      3.606      6.002
REMARK INTER + INTRA:         -21.397
REMARK INTER:                 -18.027
REMARK INTRA:                  -3.370
REMARK UNBOUND:                -3.541
REMARK SMILES CC1(C)CCC(c2ccc(Cl)cc2)=C(C[NH+]2CCN(c3ccc(C(=O)NS(=O)(=O)c4ccc(N[C@H](CC[NH+]5CCOCC5)CSc5ccccc5)c(S(=O)(=O)C(F)(F)F)c4)cc3)CC2)C1
REMARK SMILES IDX 27 1 28 2 29 3 30 4 33 5 52 6 32 7 60 8 31 9 34 10 35 12
REMARK SMILES IDX 36 13 37 14 38 15 39 16 43 17 40 18 42 19 41 20 44 22 45 23
REMARK SMILES IDX 46 24 47 25 51 26 48 27 50 28 49 29 53 30 54 31 55 32 56 33
REMARK SMILES IDX 57 34 58 35 59 36 26 37 24 38 25 39 23 41 22 42 61 43 21 44
REMARK SMILES IDX 62 45 20 46 19 47 18 48 63 49 17 50 64 51 16 52 15 54 14 55
REMARK SMILES IDX 6 56 65 57 5 58 2 59 4 60 1 61 3 62 7 63 8 64 13 65 9 66
REMARK SMILES IDX 12 67 10 68 11 69
REMARK H PARENT 34 11 38 21 26 40 16 53
ROOT
ATOM      1  S   UNL     1     -12.655 -23.603   9.551  1.00  0.00    +0.264 S 
ATOM      2  O   UNL     1     -13.804 -23.627   8.672  1.00  0.00    -0.201 OA
ATOM      3  O   UNL     1     -11.314 -23.776   9.046  1.00  0.00    -0.201 OA
ENDROOT
BRANCH   1   4
ATOM      4  C   UNL     1     -12.962 -24.815  10.811  1.00  0.00    +0.089 A 
ATOM      5  C   UNL     1     -13.579 -26.738  12.780  1.00  0.00    +0.054 A 
ATOM      6  C   UNL     1     -13.535 -25.370  13.098  1.00  0.00    +0.101 A 
ATOM      7  C   UNL     1     -13.278 -27.117  11.457  1.00  0.00    +0.028 A 
ATOM      8  C   UNL     1     -13.263 -24.405  12.109  1.00  0.00    +0.045 A 
ATOM      9  C   UNL     1     -12.962 -26.169  10.482  1.00  0.00    +0.024 A 
BRANCH   5  10
ATOM     10  N   UNL     1     -13.992 -27.727  13.706  1.00  0.00    -0.380 N 
ATOM     11  H   UNL     1     -14.511 -27.191  14.416  1.00  0.00    +0.160 HD
BRANCH  10  12
ATOM     12  C   UNL     1     -14.927 -28.762  13.177  1.00  0.00    +0.095 C 
BRANCH  12  13
ATOM     13  C   UNL     1     -16.302 -28.529  13.850  1.00  0.00    +0.087 C 
BRANCH  13  14
ATOM     14  C   UNL     1     -17.452 -29.448  13.430  1.00  0.00    +0.264 C 
BRANCH  14  15
ATOM     15  N   UNL     1     -17.989 -29.179  12.048  1.00  0.00    -0.331 N 
ATOM     16  C   UNL     1     -19.502 -28.947  12.093  1.00  0.00    +0.291 C 
ATOM     17  C   UNL     1     -17.668 -30.262  11.027  1.00  0.00    +0.291 C 
ATOM     18  C   UNL     1     -20.064 -28.709  10.688  1.00  0.00    +0.221 C 
ATOM     19  C   UNL     1     -18.315 -29.930   9.678  1.00  0.00    +0.221 C 
ATOM     20  O   UNL     1     -19.733 -29.791   9.813  1.00  0.00    -0.370 OA
ATOM     21  H   UNL     1     -17.569 -28.288  11.696  1.00  0.00    +0.348 HD
ENDBRANCH  14  15
ENDBRANCH  13  14
ENDBRANCH  12  13
BRANCH  12  22
ATOM     22  C   UNL     1     -14.356 -30.190  13.365  1.00  0.00    +0.100 C 
BRANCH  22  23
ATOM     23  S   UNL     1     -12.607 -30.391  12.876  1.00  0.00    -0.124 SA
BRANCH  23  24
ATOM     24  C   UNL     1     -12.797 -31.004  11.208  1.00  0.00    +0.007 A 
ATOM     25  C   UNL     1     -14.021 -30.946  10.531  1.00  0.00    +0.015 A 
ATOM     26  C   UNL     1     -11.684 -31.555  10.565  1.00  0.00    +0.015 A 
ATOM     27  C   UNL     1     -14.136 -31.470   9.241  1.00  0.00    +0.001 A 
ATOM     28  C   UNL     1     -11.800 -32.074   9.274  1.00  0.00    +0.001 A 
ATOM     29  C   UNL     1     -13.027 -32.037   8.615  1.00  0.00    +0.000 A 
ENDBRANCH  23  24
ENDBRANCH  22  23
ENDBRANCH  12  22
ENDBRANCH  10  12
ENDBRANCH   5  10
BRANCH   6  30
ATOM     30  S   UNL     1     -13.794 -24.745  14.757  1.00  0.00    +0.278 S 
ATOM     31  O   UNL     1     -13.807 -23.297  14.638  1.00  0.00    -0.214 OA
ATOM     32  O   UNL     1     -14.958 -25.410  15.341  1.00  0.00    -0.214 OA
BRANCH  30  33
ATOM     33  C   UNL     1     -12.284 -25.318  15.606  1.00  0.00    +0.501 C 
ATOM     34  F   UNL     1     -12.518 -26.440  16.344  1.00  0.00    -0.156 F 
ATOM     35  F   UNL     1     -11.791 -24.387  16.468  1.00  0.00    -0.156 F 
ATOM     36  F   UNL     1     -11.275 -25.630  14.743  1.00  0.00    -0.156 F 
ENDBRANCH  30  33
ENDBRANCH   6  30
ENDBRANCH   1   4
BRANCH   1  37
ATOM     37  N   UNL     1     -12.733 -22.137  10.332  1.00  0.00    -0.245 N 
ATOM     38  C   UNL     1     -11.690 -21.554  11.055  1.00  0.00    +0.264 C 
ATOM     39  O   UNL     1     -10.711 -22.181  11.427  1.00  0.00    -0.268 OA
ATOM     40  H   UNL     1     -13.649 -21.709  10.239  1.00  0.00    +0.183 HD
BRANCH  38  41
ATOM     41  C   UNL     1     -11.857 -20.109  11.397  1.00  0.00    +0.040 A 
ATOM     42  C   UNL     1     -12.362 -19.163  10.503  1.00  0.00    +0.016 A 
ATOM     43  C   UNL     1     -11.454 -19.675  12.664  1.00  0.00    +0.016 A 
ATOM     44  C   UNL     1     -12.471 -17.816  10.885  1.00  0.00    +0.027 A 
ATOM     45  C   UNL     1     -11.559 -18.323  13.030  1.00  0.00    +0.027 A 
ATOM     46  C   UNL     1     -12.077 -17.360  12.154  1.00  0.00    +0.037 A 
BRANCH  46  47
ATOM     47  N   UNL     1     -12.167 -16.019  12.480  1.00  0.00    -0.360 N 
ATOM     48  C   UNL     1     -13.456 -15.329  12.641  1.00  0.00    +0.178 C 
ATOM     49  C   UNL     1     -10.990 -15.139  12.341  1.00  0.00    +0.178 C 
ATOM     50  C   UNL     1     -13.695 -14.337  11.484  1.00  0.00    +0.284 C 
ATOM     51  C   UNL     1     -11.207 -14.144  11.178  1.00  0.00    +0.284 C 
ATOM     52  N   UNL     1     -12.519 -13.371  11.316  1.00  0.00    -0.329 N 
ATOM     53  H   UNL     1     -12.667 -12.897  10.420  1.00  0.00    +0.348 HD
BRANCH  52  54
ATOM     54  C   UNL     1     -12.491 -12.282  12.365  1.00  0.00    +0.295 C 
BRANCH  54  55
ATOM     55  C   UNL     1     -12.293 -10.899  11.786  1.00  0.00    -0.012 C 
ATOM     56  C   UNL     1     -11.093 -10.317  11.546  1.00  0.00    -0.036 C 
ATOM     57  C   UNL     1     -13.585 -10.126  11.558  1.00  0.00    +0.043 C 
ATOM     58  C   UNL     1     -10.943  -8.908  11.003  1.00  0.00    +0.037 C 
ATOM     59  C   UNL     1     -13.467  -8.888  10.641  1.00  0.00    -0.031 C 
ATOM     60  C   UNL     1     -12.227  -8.080  11.064  1.00  0.00    +0.011 C 
ATOM     61  C   UNL     1     -14.726  -8.015  10.802  1.00  0.00    +0.011 C 
ATOM     62  C   UNL     1     -13.372  -9.318   9.163  1.00  0.00    +0.011 C 
BRANCH  56  63
ATOM     63  C   UNL     1      -9.806 -10.994  11.795  1.00  0.00    -0.022 A 
ATOM     64  C   UNL     1      -9.374 -11.237  13.106  1.00  0.00    +0.010 A 
ATOM     65  C   UNL     1      -8.988 -11.373  10.721  1.00  0.00    +0.010 A 
ATOM     66  C   UNL     1      -8.158 -11.887  13.340  1.00  0.00    +0.021 A 
ATOM     67  C   UNL     1      -7.771 -12.020  10.956  1.00  0.00    +0.021 A 
ATOM     68  C   UNL     1      -7.365 -12.281  12.264  1.00  0.00    +0.041 A 
ATOM     69 Cl   UNL     1      -5.877 -13.091  12.550  1.00  0.00    -0.084 Cl
ENDBRANCH  56  63
ENDBRANCH  54  55
ENDBRANCH  52  54
ENDBRANCH  46  47
ENDBRANCH  38  41
ENDBRANCH   1  37
TORSDOF 17
ENDMDL
MODEL 4
REMARK VINA RESULT:    -8.862      1.894      2.600
REMARK INTER + INTRA:         -21.211
REMARK INTER:                 -17.700
REMARK INTRA:                  -3.512
REMARK UNBOUND:                -3.541
REMARK SMILES CC1(C)CCC(c2ccc(Cl)cc2)=C(C[NH+]2CCN(c3ccc(C(=O)NS(=O)(=O)c4ccc(N[C@H](CC[NH+]5CCOCC5)CSc5ccccc5)c(S(=O)(=O)C(F)(F)F)c4)cc3)CC2)C1
REMARK SMILES IDX 27 1 28 2 29 3 30 4 33 5 52 6 32 7 60 8 31 9 34 10 35 12
REMARK SMILES IDX 36 13 37 14 38 15 39 16 43 17 40 18 42 19 41 20 44 22 45 23
REMARK SMILES IDX 46 24 47 25 51 26 48 27 50 28 49 29 53 30 54 31 55 32 56 33
REMARK SMILES IDX 57 34 58 35 59 36 26 37 24 38 25 39 23 41 22 42 61 43 21 44
REMARK SMILES IDX 62 45 20 46 19 47 18 48 63 49 17 50 64 51 16 52 15 54 14 55
REMARK SMILES IDX 6 56 65 57 5 58 2 59 4 60 1 61 3 62 7 63 8 64 13 65 9 66
REMARK SMILES IDX 12 67 10 68 11 69
REMARK H PARENT 34 11 38 21 26 40 16 53
ROOT
ATOM      1  S   UNL     1     -17.773 -20.143  11.946  1.00  0.00    +0.264 S 
ATOM      2  O   UNL     1     -18.369 -20.159  13.264  1.00  0.00    -0.201 OA
ATOM      3  O   UNL     1     -18.580 -20.220  10.751  1.00  0.00    -0.201 OA
ENDROOT
BRANCH   1   4
ATOM      4  C   UNL     1     -16.575 -21.453  11.921  1.00  0.00    +0.089 A 
ATOM      5  C   UNL     1     -14.772 -23.621  11.876  1.00  0.00    +0.054 A 
ATOM      6  C   UNL     1     -15.211 -23.075  13.094  1.00  0.00    +0.101 A 
ATOM      7  C   UNL     1     -15.240 -23.034  10.684  1.00  0.00    +0.028 A 
ATOM      8  C   UNL     1     -16.139 -22.015  13.119  1.00  0.00    +0.045 A 
ATOM      9  C   UNL     1     -16.124 -21.954  10.702  1.00  0.00    +0.024 A 
BRANCH   5  10
ATOM     10  N   UNL     1     -13.957 -24.778  11.804  1.00  0.00    -0.380 N 
ATOM     11  H   UNL     1     -14.544 -25.455  11.296  1.00  0.00    +0.160 HD
BRANCH  10  12
ATOM     12  C   UNL     1     -12.692 -24.634  11.028  1.00  0.00    +0.095 C 
BRANCH  12  13
ATOM     13  C   UNL     1     -12.231 -26.056  10.625  1.00  0.00    +0.087 C 
BRANCH  13  14
ATOM     14  C   UNL     1     -13.320 -27.106  10.390  1.00  0.00    +0.264 C 
BRANCH  14  15
ATOM     15  N   UNL     1     -13.294 -28.255  11.366  1.00  0.00    -0.331 N 
ATOM     16  C   UNL     1     -12.127 -28.106  12.344  1.00  0.00    +0.291 C 
ATOM     17  C   UNL     1     -13.243 -29.631  10.715  1.00  0.00    +0.291 C 
ATOM     18  C   UNL     1     -12.070 -29.288  13.316  1.00  0.00    +0.221 C 
ATOM     19  C   UNL     1     -13.149 -30.723  11.785  1.00  0.00    +0.221 C 
ATOM     20  O   UNL     1     -11.996 -30.530  12.610  1.00  0.00    -0.370 OA
ATOM     21  H   UNL     1     -14.165 -28.219  11.945  1.00  0.00    +0.348 HD
ENDBRANCH  14  15
ENDBRANCH  13  14
ENDBRANCH  12  13
BRANCH  12  22
ATOM     22  C   UNL     1     -11.636 -23.817  11.813  1.00  0.00    +0.100 C 
BRANCH  22  23
ATOM     23  S   UNL     1     -11.081 -22.282  10.991  1.00  0.00    -0.124 SA
BRANCH  23  24
ATOM     24  C   UNL     1      -9.575 -22.847  10.214  1.00  0.00    +0.007 A 
ATOM     25  C   UNL     1      -9.148 -22.355   8.976  1.00  0.00    +0.015 A 
ATOM     26  C   UNL     1      -8.804 -23.812  10.870  1.00  0.00    +0.015 A 
ATOM     27  C   UNL     1      -7.982 -22.850   8.385  1.00  0.00    +0.001 A 
ATOM     28  C   UNL     1      -7.637 -24.304  10.280  1.00  0.00    +0.001 A 
ATOM     29  C   UNL     1      -7.231 -23.827   9.036  1.00  0.00    +0.000 A 
ENDBRANCH  23  24
ENDBRANCH  22  23
ENDBRANCH  12  22
ENDBRANCH  10  12
ENDBRANCH   5  10
BRANCH   6  30
ATOM     30  S   UNL     1     -14.626 -23.647  14.687  1.00  0.00    +0.278 S 
ATOM     31  O   UNL     1     -15.781 -23.620  15.567  1.00  0.00    -0.214 OA
ATOM     32  O   UNL     1     -13.912 -24.911  14.508  1.00  0.00    -0.214 OA
BRANCH  30  33
ATOM     33  C   UNL     1     -13.433 -22.340  15.133  1.00  0.00    +0.501 C 
ATOM     34  F   UNL     1     -12.464 -22.808  15.971  1.00  0.00    -0.156 F 
ATOM     35  F   UNL     1     -14.026 -21.297  15.776  1.00  0.00    -0.156 F 
ATOM     36  F   UNL     1     -12.786 -21.819  14.052  1.00  0.00    -0.156 F 
ENDBRANCH  30  33
ENDBRANCH   6  30
ENDBRANCH   1   4
BRANCH   1  37
ATOM     37  N   UNL     1     -16.883 -18.740  11.885  1.00  0.00    -0.245 N 
ATOM     38  C   UNL     1     -15.980 -18.317  12.863  1.00  0.00    +0.264 C 
ATOM     39  O   UNL     1     -15.959 -18.784  13.991  1.00  0.00    -0.268 OA
ATOM     40  H   UNL     1     -17.085 -18.203  11.047  1.00  0.00    +0.183 HD
BRANCH  38  41
ATOM     41  C   UNL     1     -15.057 -17.211  12.468  1.00  0.00    +0.040 A 
ATOM     42  C   UNL     1     -15.439 -15.868  12.436  1.00  0.00    +0.016 A 
ATOM     43  C   UNL     1     -13.755 -17.539  12.075  1.00  0.00    +0.016 A 
ATOM     44  C   UNL     1     -14.524 -14.882  12.032  1.00  0.00    +0.027 A 
ATOM     45  C   UNL     1     -12.854 -16.544  11.665  1.00  0.00    +0.027 A 
ATOM     46  C   UNL     1     -13.211 -15.189  11.640  1.00  0.00    +0.037 A 
BRANCH  46  47
ATOM     47  N   UNL     1     -12.351 -14.193  11.214  1.00  0.00    -0.360 N 
ATOM     48  C   UNL     1     -10.892 -14.378  11.166  1.00  0.00    +0.178 C 
ATOM     49  C   UNL     1     -12.816 -12.796  11.122  1.00  0.00    +0.178 C 
ATOM     50  C   UNL     1     -10.197 -13.535  12.255  1.00  0.00    +0.284 C 
ATOM     51  C   UNL     1     -12.138 -11.937  12.214  1.00  0.00    +0.284 C 
ATOM     52  N   UNL     1     -10.614 -12.064  12.184  1.00  0.00    -0.329 N 
ATOM     53  H   UNL     1     -10.275 -11.630  13.048  1.00  0.00    +0.348 HD
BRANCH  52  54
ATOM     54  C   UNL     1      -9.952 -11.312  11.051  1.00  0.00    +0.295 C 
BRANCH  54  55
ATOM     55  C   UNL     1      -8.534 -10.888  11.363  1.00  0.00    -0.012 C 
ATOM     56  C   UNL     1      -8.186  -9.883  12.203  1.00  0.00    -0.036 C 
ATOM     57  C   UNL     1      -7.469 -11.636  10.572  1.00  0.00    +0.043 C 
ATOM     58  C   UNL     1      -6.749  -9.464  12.454  1.00  0.00    +0.037 C 
ATOM     59  C   UNL     1      -6.027 -11.510  11.113  1.00  0.00    -0.031 C 
ATOM     60  C   UNL     1      -5.754 -10.031  11.441  1.00  0.00    +0.011 C 
ATOM     61  C   UNL     1      -5.037 -11.986  10.034  1.00  0.00    +0.011 C 
ATOM     62  C   UNL     1      -5.838 -12.399  12.359  1.00  0.00    +0.011 C 
BRANCH  56  63
ATOM     63  C   UNL     1      -9.173  -9.087  12.958  1.00  0.00    -0.022 A 
ATOM     64  C   UNL     1      -9.513  -9.436  14.272  1.00  0.00    +0.010 A 
ATOM     65  C   UNL     1      -9.803  -7.989  12.355  1.00  0.00    +0.010 A 
ATOM     66  C   UNL     1     -10.442  -8.675  14.987  1.00  0.00    +0.021 A 
ATOM     67  C   UNL     1     -10.734  -7.230  13.070  1.00  0.00    +0.021 A 
ATOM     68  C   UNL     1     -11.044  -7.571  14.386  1.00  0.00    +0.041 A 
ATOM     69 Cl   UNL     1     -12.175  -6.627  15.270  1.00  0.00    -0.084 Cl
ENDBRANCH  56  63
ENDBRANCH  54  55
ENDBRANCH  52  54
ENDBRANCH  46  47
ENDBRANCH  38  41
ENDBRANCH   1  37
TORSDOF 17
ENDMDL
MODEL 5
REMARK VINA RESULT:    -8.370      3.595      6.039
REMARK INTER + INTRA:         -20.229
REMARK INTER:                 -16.932
REMARK INTRA:                  -3.296
REMARK UNBOUND:                -3.541
REMARK SMILES CC1(C)CCC(c2ccc(Cl)cc2)=C(C[NH+]2CCN(c3ccc(C(=O)NS(=O)(=O)c4ccc(N[C@H](CC[NH+]5CCOCC5)CSc5ccccc5)c(S(=O)(=O)C(F)(F)F)c4)cc3)CC2)C1
REMARK SMILES IDX 27 1 28 2 29 3 30 4 33 5 52 6 32 7 60 8 31 9 34 10 35 12
REMARK SMILES IDX 36 13 37 14 38 15 39 16 43 17 40 18 42 19 41 20 44 22 45 23
REMARK SMILES IDX 46 24 47 25 51 26 48 27 50 28 49 29 53 30 54 31 55 32 56 33
REMARK SMILES IDX 57 34 58 35 59 36 26 37 24 38 25 39 23 41 22 42 61 43 21 44
REMARK SMILES IDX 62 45 20 46 19 47 18 48 63 49 17 50 64 51 16 52 15 54 14 55
REMARK SMILES IDX 6 56 65 57 5 58 2 59 4 60 1 61 3 62 7 63 8 64 13 65 9 66
REMARK SMILES IDX 12 67 10 68 11 69
REMARK H PARENT 34 11 38 21 26 40 16 53
ROOT
ATOM      1  S   UNL     1     -13.633 -22.729  10.142  1.00  0.00    +0.264 S 
ATOM      2  O   UNL     1     -15.064 -22.886  10.285  1.00  0.00    -0.201 OA
ATOM      3  O   UNL     1     -12.995 -22.771   8.848  1.00  0.00    -0.201 OA
ENDROOT
BRANCH   1   4
ATOM      4  C   UNL     1     -12.886 -23.947  11.196  1.00  0.00    +0.089 A 
ATOM      5  C   UNL     1     -11.809 -25.959  12.854  1.00  0.00    +0.054 A 
ATOM      6  C   UNL     1     -12.540 -24.889  13.401  1.00  0.00    +0.101 A 
ATOM      7  C   UNL     1     -11.611 -25.977  11.460  1.00  0.00    +0.028 A 
ATOM      8  C   UNL     1     -13.109 -23.903  12.571  1.00  0.00    +0.045 A 
ATOM      9  C   UNL     1     -12.134 -24.978  10.636  1.00  0.00    +0.024 A 
BRANCH   5  10
ATOM     10  N   UNL     1     -11.347 -27.047  13.633  1.00  0.00    -0.380 N 
ATOM     11  H   UNL     1     -11.297 -26.658  14.585  1.00  0.00    +0.160 HD
BRANCH  10  12
ATOM     12  C   UNL     1     -12.252 -28.230  13.698  1.00  0.00    +0.095 C 
BRANCH  12  13
ATOM     13  C   UNL     1     -11.912 -29.004  14.995  1.00  0.00    +0.087 C 
BRANCH  13  14
ATOM     14  C   UNL     1     -13.048 -29.232  15.995  1.00  0.00    +0.264 C 
BRANCH  14  15
ATOM     15  N   UNL     1     -14.121 -30.172  15.510  1.00  0.00    -0.331 N 
ATOM     16  C   UNL     1     -15.133 -30.456  16.624  1.00  0.00    +0.291 C 
ATOM     17  C   UNL     1     -13.598 -31.487  14.948  1.00  0.00    +0.291 C 
ATOM     18  C   UNL     1     -16.207 -31.441  16.152  1.00  0.00    +0.221 C 
ATOM     19  C   UNL     1     -14.764 -32.398  14.550  1.00  0.00    +0.221 C 
ATOM     20  O   UNL     1     -15.618 -32.651  15.669  1.00  0.00    -0.370 OA
ATOM     21  H   UNL     1     -14.656 -29.700  14.745  1.00  0.00    +0.348 HD
ENDBRANCH  14  15
ENDBRANCH  13  14
ENDBRANCH  12  13
BRANCH  12  22
ATOM     22  C   UNL     1     -12.167 -29.080  12.405  1.00  0.00    +0.100 C 
BRANCH  22  23
ATOM     23  S   UNL     1     -13.709 -29.153  11.428  1.00  0.00    -0.124 SA
BRANCH  23  24
ATOM     24  C   UNL     1     -13.360 -30.544  10.361  1.00  0.00    +0.007 A 
ATOM     25  C   UNL     1     -14.330 -31.094   9.516  1.00  0.00    +0.015 A 
ATOM     26  C   UNL     1     -12.074 -31.094  10.376  1.00  0.00    +0.015 A 
ATOM     27  C   UNL     1     -14.027 -32.205   8.725  1.00  0.00    +0.001 A 
ATOM     28  C   UNL     1     -11.771 -32.202   9.582  1.00  0.00    +0.001 A 
ATOM     29  C   UNL     1     -12.749 -32.760   8.762  1.00  0.00    +0.000 A 
ENDBRANCH  23  24
ENDBRANCH  22  23
ENDBRANCH  12  22
ENDBRANCH  10  12
ENDBRANCH   5  10
BRANCH   6  30
ATOM     30  S   UNL     1     -12.787 -24.675  15.161  1.00  0.00    +0.278 S 
ATOM     31  O   UNL     1     -11.717 -25.418  15.805  1.00  0.00    -0.214 OA
ATOM     32  O   UNL     1     -12.922 -23.248  15.455  1.00  0.00    -0.214 OA
BRANCH  30  33
ATOM     33  C   UNL     1     -14.396 -25.497  15.410  1.00  0.00    +0.501 C 
ATOM     34  F   UNL     1     -14.743 -26.258  14.333  1.00  0.00    -0.156 F 
ATOM     35  F   UNL     1     -15.409 -24.605  15.592  1.00  0.00    -0.156 F 
ATOM     36  F   UNL     1     -14.406 -26.331  16.489  1.00  0.00    -0.156 F 
ENDBRANCH  30  33
ENDBRANCH   6  30
ENDBRANCH   1   4
BRANCH   1  37
ATOM     37  N   UNL     1     -13.280 -21.268  10.851  1.00  0.00    -0.245 N 
ATOM     38  C   UNL     1     -12.000 -20.722  10.976  1.00  0.00    +0.264 C 
ATOM     39  O   UNL     1     -10.982 -21.382  10.836  1.00  0.00    -0.268 OA
ATOM     40  H   UNL     1     -14.113 -20.811  11.207  1.00  0.00    +0.183 HD
BRANCH  38  41
ATOM     41  C   UNL     1     -11.937 -19.276  11.344  1.00  0.00    +0.040 A 
ATOM     42  C   UNL     1     -12.236 -18.244  10.452  1.00  0.00    +0.016 A 
ATOM     43  C   UNL     1     -11.524 -18.935  12.636  1.00  0.00    +0.016 A 
ATOM     44  C   UNL     1     -12.134 -16.904  10.860  1.00  0.00    +0.027 A 
ATOM     45  C   UNL     1     -11.417 -17.591  13.028  1.00  0.00    +0.027 A 
ATOM     46  C   UNL     1     -11.727 -16.541  12.154  1.00  0.00    +0.037 A 
BRANCH  46  47
ATOM     47  N   UNL     1     -11.604 -15.209  12.507  1.00  0.00    -0.360 N 
ATOM     48  C   UNL     1     -12.769 -14.355  12.785  1.00  0.00    +0.178 C 
ATOM     49  C   UNL     1     -10.333 -14.493  12.283  1.00  0.00    +0.178 C 
ATOM     50  C   UNL     1     -12.961 -13.309  11.667  1.00  0.00    +0.284 C 
ATOM     51  C   UNL     1     -10.503 -13.448  11.158  1.00  0.00    +0.284 C 
ATOM     52  N   UNL     1     -11.681 -12.508  11.416  1.00  0.00    -0.329 N 
ATOM     53  H   UNL     1     -11.834 -11.994  10.543  1.00  0.00    +0.348 HD
BRANCH  52  54
ATOM     54  C   UNL     1     -11.419 -11.461  12.475  1.00  0.00    +0.295 C 
BRANCH  54  55
ATOM     55  C   UNL     1     -12.108 -10.144  12.198  1.00  0.00    -0.012 C 
ATOM     56  C   UNL     1     -11.630  -9.167  11.388  1.00  0.00    -0.036 C 
ATOM     57  C   UNL     1     -13.392  -9.932  12.988  1.00  0.00    +0.043 C 
ATOM     58  C   UNL     1     -12.337  -7.842  11.173  1.00  0.00    +0.037 C 
ATOM     59  C   UNL     1     -14.310  -8.799  12.475  1.00  0.00    -0.031 C 
ATOM     60  C   UNL     1     -13.445  -7.558  12.188  1.00  0.00    +0.011 C 
ATOM     61  C   UNL     1     -15.350  -8.458  13.559  1.00  0.00    +0.011 C 
ATOM     62  C   UNL     1     -15.070  -9.250  11.212  1.00  0.00    +0.011 C 
BRANCH  56  63
ATOM     63  C   UNL     1     -10.367  -9.291  10.637  1.00  0.00    -0.022 A 
ATOM     64  C   UNL     1      -9.136  -9.272  11.308  1.00  0.00    +0.010 A 
ATOM     65  C   UNL     1     -10.384  -9.401   9.239  1.00  0.00    +0.010 A 
ATOM     66  C   UNL     1      -7.941  -9.399  10.595  1.00  0.00    +0.021 A 
ATOM     67  C   UNL     1      -9.188  -9.524   8.526  1.00  0.00    +0.021 A 
ATOM     68  C   UNL     1      -7.972  -9.530   9.208  1.00  0.00    +0.041 A 
ATOM     69 Cl   UNL     1      -6.503  -9.700   8.332  1.00  0.00    -0.084 Cl
ENDBRANCH  56  63
ENDBRANCH  54  55
ENDBRANCH  52  54
ENDBRANCH  46  47
ENDBRANCH  38  41
ENDBRANCH   1  37
TORSDOF 17
ENDMDL
MODEL 6
REMARK VINA RESULT:    -8.196      3.917      6.558
REMARK INTER + INTRA:         -19.882
REMARK INTER:                 -17.154
REMARK INTRA:                  -2.729
REMARK UNBOUND:                -3.541
REMARK SMILES CC1(C)CCC(c2ccc(Cl)cc2)=C(C[NH+]2CCN(c3ccc(C(=O)NS(=O)(=O)c4ccc(N[C@H](CC[NH+]5CCOCC5)CSc5ccccc5)c(S(=O)(=O)C(F)(F)F)c4)cc3)CC2)C1
REMARK SMILES IDX 27 1 28 2 29 3 30 4 33 5 52 6 32 7 60 8 31 9 34 10 35 12
REMARK SMILES IDX 36 13 37 14 38 15 39 16 43 17 40 18 42 19 41 20 44 22 45 23
REMARK SMILES IDX 46 24 47 25 51 26 48 27 50 28 49 29 53 30 54 31 55 32 56 33
REMARK SMILES IDX 57 34 58 35 59 36 26 37 24 38 25 39 23 41 22 42 61 43 21 44
REMARK SMILES IDX 62 45 20 46 19 47 18 48 63 49 17 50 64 51 16 52 15 54 14 55
REMARK SMILES IDX 6 56 65 57 5 58 2 59 4 60 1 61 3 62 7 63 8 64 13 65 9 66
REMARK SMILES IDX 12 67 10 68 11 69
REMARK H PARENT 34 11 38 21 26 40 16 53
ROOT
ATOM      1  S   UNL     1     -10.452 -22.596  10.447  1.00  0.00    +0.264 S 
ATOM      2  O   UNL     1     -10.405 -22.703   9.005  1.00  0.00    -0.201 OA
ATOM      3  O   UNL     1      -9.248 -22.595  11.243  1.00  0.00    -0.201 OA
ENDROOT
BRANCH   1   4
ATOM      4  C   UNL     1     -11.520 -23.896  11.012  1.00  0.00    +0.089 A 
ATOM      5  C   UNL     1     -13.323 -25.889  11.870  1.00  0.00    +0.054 A 
ATOM      6  C   UNL     1     -12.880 -24.889  12.754  1.00  0.00    +0.101 A 
ATOM      7  C   UNL     1     -12.816 -25.878  10.555  1.00  0.00    +0.028 A 
ATOM      8  C   UNL     1     -12.009 -23.872  12.318  1.00  0.00    +0.045 A 
ATOM      9  C   UNL     1     -11.916 -24.899  10.130  1.00  0.00    +0.024 A 
BRANCH   5  10
ATOM     10  N   UNL     1     -14.310 -26.841  12.223  1.00  0.00    -0.380 N 
ATOM     11  H   UNL     1     -15.082 -26.641  11.571  1.00  0.00    +0.160 HD
BRANCH  10  12
ATOM     12  C   UNL     1     -13.935 -28.270  12.020  1.00  0.00    +0.095 C 
BRANCH  12  13
ATOM     13  C   UNL     1     -12.522 -28.467  12.622  1.00  0.00    +0.087 C 
BRANCH  13  14
ATOM     14  C   UNL     1     -12.144 -29.879  13.076  1.00  0.00    +0.264 C 
BRANCH  14  15
ATOM     15  N   UNL     1     -12.983 -30.412  14.209  1.00  0.00    -0.331 N 
ATOM     16  C   UNL     1     -12.163 -30.484  15.500  1.00  0.00    +0.291 C 
ATOM     17  C   UNL     1     -13.623 -31.766  13.934  1.00  0.00    +0.291 C 
ATOM     18  C   UNL     1     -12.998 -31.059  16.649  1.00  0.00    +0.221 C 
ATOM     19  C   UNL     1     -14.393 -32.251  15.167  1.00  0.00    +0.221 C 
ATOM     20  O   UNL     1     -13.531 -32.340  16.304  1.00  0.00    -0.370 OA
ATOM     21  H   UNL     1     -13.759 -29.735  14.394  1.00  0.00    +0.348 HD
ENDBRANCH  14  15
ENDBRANCH  13  14
ENDBRANCH  12  13
BRANCH  12  22
ATOM     22  C   UNL     1     -14.061 -28.684  10.533  1.00  0.00    +0.100 C 
BRANCH  22  23
ATOM     23  S   UNL     1     -15.160 -30.110  10.220  1.00  0.00    -0.124 SA
BRANCH  23  24
ATOM     24  C   UNL     1     -13.994 -31.284   9.543  1.00  0.00    +0.007 A 
ATOM     25  C   UNL     1     -12.689 -31.402  10.034  1.00  0.00    +0.015 A 
ATOM     26  C   UNL     1     -14.407 -32.107   8.490  1.00  0.00    +0.015 A 
ATOM     27  C   UNL     1     -11.798 -32.307   9.453  1.00  0.00    +0.001 A 
ATOM     28  C   UNL     1     -13.515 -33.014   7.913  1.00  0.00    +0.001 A 
ATOM     29  C   UNL     1     -12.210 -33.109   8.390  1.00  0.00    +0.000 A 
ENDBRANCH  23  24
ENDBRANCH  22  23
ENDBRANCH  12  22
ENDBRANCH  10  12
ENDBRANCH   5  10
BRANCH   6  30
ATOM     30  S   UNL     1     -13.356 -24.833  14.479  1.00  0.00    +0.278 S 
ATOM     31  O   UNL     1     -13.204 -23.447  14.888  1.00  0.00    -0.214 OA
ATOM     32  O   UNL     1     -14.664 -25.469  14.635  1.00  0.00    -0.214 OA
BRANCH  30  33
ATOM     33  C   UNL     1     -12.078 -25.885  15.248  1.00  0.00    +0.501 C 
ATOM     34  F   UNL     1     -11.517 -25.280  16.335  1.00  0.00    -0.156 F 
ATOM     35  F   UNL     1     -11.056 -26.163  14.394  1.00  0.00    -0.156 F 
ATOM     36  F   UNL     1     -12.566 -27.081  15.684  1.00  0.00    -0.156 F 
ENDBRANCH  30  33
ENDBRANCH   6  30
ENDBRANCH   1   4
BRANCH   1  37
ATOM     37  N   UNL     1     -11.281 -21.188  10.754  1.00  0.00    -0.245 N 
ATOM     38  C   UNL     1     -11.279 -20.501  11.970  1.00  0.00    +0.264 C 
ATOM     39  O   UNL     1     -10.900 -21.006  13.015  1.00  0.00    -0.268 OA
ATOM     40  H   UNL     1     -11.817 -20.884   9.947  1.00  0.00    +0.183 HD
BRANCH  38  41
ATOM     41  C   UNL     1     -11.817 -19.108  11.936  1.00  0.00    +0.040 A 
ATOM     42  C   UNL     1     -11.558 -18.162  12.930  1.00  0.00    +0.016 A 
ATOM     43  C   UNL     1     -12.650 -18.742  10.874  1.00  0.00    +0.016 A 
ATOM     44  C   UNL     1     -12.116 -16.876  12.846  1.00  0.00    +0.027 A 
ATOM     45  C   UNL     1     -13.209 -17.456  10.807  1.00  0.00    +0.027 A 
ATOM     46  C   UNL     1     -12.951 -16.487  11.786  1.00  0.00    +0.037 A 
BRANCH  46  47
ATOM     47  N   UNL     1     -13.511 -15.222  11.756  1.00  0.00    -0.360 N 
ATOM     48  C   UNL     1     -13.034 -14.168  10.847  1.00  0.00    +0.178 C 
ATOM     49  C   UNL     1     -14.369 -14.762  12.865  1.00  0.00    +0.178 C 
ATOM     50  C   UNL     1     -12.305 -13.057  11.630  1.00  0.00    +0.284 C 
ATOM     51  C   UNL     1     -13.650 -13.654  13.669  1.00  0.00    +0.284 C 
ATOM     52  N   UNL     1     -13.165 -12.514  12.774  1.00  0.00    -0.329 N 
ATOM     53  H   UNL     1     -12.542 -11.942  13.352  1.00  0.00    +0.348 HD
BRANCH  52  54
ATOM     54  C   UNL     1     -14.262 -11.586  12.301  1.00  0.00    +0.295 C 
BRANCH  54  55
ATOM     55  C   UNL     1     -14.255 -10.246  13.001  1.00  0.00    -0.012 C 
ATOM     56  C   UNL     1     -13.420  -9.218  12.712  1.00  0.00    -0.036 C 
ATOM     57  C   UNL     1     -15.230 -10.143  14.166  1.00  0.00    +0.043 C 
ATOM     58  C   UNL     1     -13.420  -7.904  13.470  1.00  0.00    +0.037 C 
ATOM     59  C   UNL     1     -15.525  -8.710  14.663  1.00  0.00    -0.031 C 
ATOM     60  C   UNL     1     -14.192  -7.950  14.789  1.00  0.00    +0.011 C 
ATOM     61  C   UNL     1     -16.207  -8.780  16.042  1.00  0.00    +0.011 C 
ATOM     62  C   UNL     1     -16.484  -7.990  13.694  1.00  0.00    +0.011 C 
BRANCH  56  63
ATOM     63  C   UNL     1     -12.418  -9.275  11.630  1.00  0.00    -0.022 A 
ATOM     64  C   UNL     1     -11.083  -9.597  11.914  1.00  0.00    +0.010 A 
ATOM     65  C   UNL     1     -12.786  -8.979  10.310  1.00  0.00    +0.010 A 
ATOM     66  C   UNL     1     -10.138  -9.660  10.886  1.00  0.00    +0.021 A 
ATOM     67  C   UNL     1     -11.839  -9.039   9.283  1.00  0.00    +0.021 A 
ATOM     68  C   UNL     1     -10.521  -9.386   9.575  1.00  0.00    +0.041 A 
ATOM     69 Cl   UNL     1      -9.362  -9.476   8.309  1.00  0.00    -0.084 Cl
ENDBRANCH  56  63
ENDBRANCH  54  55
ENDBRANCH  52  54
ENDBRANCH  46  47
ENDBRANCH  38  41
ENDBRANCH   1  37
TORSDOF 17
ENDMDL
MODEL 7
REMARK VINA RESULT:    -8.099     11.813     15.384
REMARK INTER + INTRA:         -19.689
REMARK INTER:                 -15.936
REMARK INTRA:                  -3.753
REMARK UNBOUND:                -3.541
REMARK SMILES CC1(C)CCC(c2ccc(Cl)cc2)=C(C[NH+]2CCN(c3ccc(C(=O)NS(=O)(=O)c4ccc(N[C@H](CC[NH+]5CCOCC5)CSc5ccccc5)c(S(=O)(=O)C(F)(F)F)c4)cc3)CC2)C1
REMARK SMILES IDX 27 1 28 2 29 3 30 4 33 5 52 6 32 7 60 8 31 9 34 10 35 12
REMARK SMILES IDX 36 13 37 14 38 15 39 16 43 17 40 18 42 19 41 20 44 22 45 23
REMARK SMILES IDX 46 24 47 25 51 26 48 27 50 28 49 29 53 30 54 31 55 32 56 33
REMARK SMILES IDX 57 34 58 35 59 36 26 37 24 38 25 39 23 41 22 42 61 43 21 44
REMARK SMILES IDX 62 45 20 46 19 47 18 48 63 49 17 50 64 51 16 52 15 54 14 55
REMARK SMILES IDX 6 56 65 57 5 58 2 59 4 60 1 61 3 62 7 63 8 64 13 65 9 66
REMARK SMILES IDX 12 67 10 68 11 69
REMARK H PARENT 34 11 38 21 26 40 16 53
ROOT
ATOM      1  S   UNL     1       3.779 -10.456   9.327  1.00  0.00    +0.264 S 
ATOM      2  O   UNL     1       3.564 -10.994   8.002  1.00  0.00    -0.201 OA
ATOM      3  O   UNL     1       4.723  -9.390   9.566  1.00  0.00    -0.201 OA
ENDROOT
BRANCH   1   4
ATOM      4  C   UNL     1       4.187 -11.835  10.368  1.00  0.00    +0.089 A 
ATOM      5  C   UNL     1       4.706 -14.065  12.016  1.00  0.00    +0.054 A 
ATOM      6  C   UNL     1       4.384 -12.816  12.575  1.00  0.00    +0.101 A 
ATOM      7  C   UNL     1       4.787 -14.158  10.613  1.00  0.00    +0.028 A 
ATOM      8  C   UNL     1       4.089 -11.710  11.753  1.00  0.00    +0.045 A 
ATOM      9  C   UNL     1       4.541 -13.054   9.794  1.00  0.00    +0.024 A 
BRANCH   5  10
ATOM     10  N   UNL     1       4.865 -15.236  12.797  1.00  0.00    -0.380 N 
ATOM     11  H   UNL     1       4.153 -15.132  13.534  1.00  0.00    +0.160 HD
BRANCH  10  12
ATOM     12  C   UNL     1       4.580 -16.524  12.101  1.00  0.00    +0.095 C 
BRANCH  12  13
ATOM     13  C   UNL     1       3.489 -17.260  12.918  1.00  0.00    +0.087 C 
BRANCH  13  14
ATOM     14  C   UNL     1       3.940 -18.430  13.795  1.00  0.00    +0.264 C 
BRANCH  14  15
ATOM     15  N   UNL     1       3.202 -19.719  13.539  1.00  0.00    -0.331 N 
ATOM     16  C   UNL     1       4.145 -20.774  12.954  1.00  0.00    +0.291 C 
ATOM     17  C   UNL     1       1.979 -19.574  12.642  1.00  0.00    +0.291 C 
ATOM     18  C   UNL     1       3.395 -22.075  12.655  1.00  0.00    +0.221 C 
ATOM     19  C   UNL     1       1.342 -20.944  12.386  1.00  0.00    +0.221 C 
ATOM     20  O   UNL     1       2.284 -21.839  11.787  1.00  0.00    -0.370 OA
ATOM     21  H   UNL     1       2.870 -20.100  14.454  1.00  0.00    +0.348 HD
ENDBRANCH  14  15
ENDBRANCH  13  14
ENDBRANCH  12  13
BRANCH  12  22
ATOM     22  C   UNL     1       5.875 -17.344  11.877  1.00  0.00    +0.100 C 
BRANCH  22  23
ATOM     23  S   UNL     1       6.375 -17.534  10.130  1.00  0.00    -0.124 SA
BRANCH  23  24
ATOM     24  C   UNL     1       5.374 -18.933   9.648  1.00  0.00    +0.007 A 
ATOM     25  C   UNL     1       5.926 -20.199   9.424  1.00  0.00    +0.015 A 
ATOM     26  C   UNL     1       3.996 -18.750   9.493  1.00  0.00    +0.015 A 
ATOM     27  C   UNL     1       5.114 -21.259   9.013  1.00  0.00    +0.001 A 
ATOM     28  C   UNL     1       3.185 -19.811   9.086  1.00  0.00    +0.001 A 
ATOM     29  C   UNL     1       3.745 -21.063   8.840  1.00  0.00    +0.000 A 
ENDBRANCH  23  24
ENDBRANCH  22  23
ENDBRANCH  12  22
ENDBRANCH  10  12
ENDBRANCH   5  10
BRANCH   6  30
ATOM     30  S   UNL     1       4.343 -12.518  14.340  1.00  0.00    +0.278 S 
ATOM     31  O   UNL     1       5.577 -13.077  14.865  1.00  0.00    -0.214 OA
ATOM     32  O   UNL     1       4.059 -11.103  14.579  1.00  0.00    -0.214 OA
BRANCH  30  33
ATOM     33  C   UNL     1       2.904 -13.517  14.849  1.00  0.00    +0.501 C 
ATOM     34  F   UNL     1       3.280 -14.603  15.584  1.00  0.00    -0.156 F 
ATOM     35  F   UNL     1       2.206 -13.998  13.783  1.00  0.00    -0.156 F 
ATOM     36  F   UNL     1       2.019 -12.821  15.618  1.00  0.00    -0.156 F 
ENDBRANCH  30  33
ENDBRANCH   6  30
ENDBRANCH   1   4
BRANCH   1  37
ATOM     37  N   UNL     1       2.282  -9.952   9.843  1.00  0.00    -0.245 N 
ATOM     38  C   UNL     1       1.537  -8.920   9.266  1.00  0.00    +0.264 C 
ATOM     39  O   UNL     1       2.024  -8.096   8.507  1.00  0.00    -0.268 OA
ATOM     40  H   UNL     1       1.966 -10.476  10.652  1.00  0.00    +0.183 HD
BRANCH  38  41
ATOM     41  C   UNL     1       0.100  -8.845   9.667  1.00  0.00    +0.040 A 
ATOM     42  C   UNL     1      -0.951  -9.226   8.831  1.00  0.00    +0.016 A 
ATOM     43  C   UNL     1      -0.211  -8.333  10.931  1.00  0.00    +0.016 A 
ATOM     44  C   UNL     1      -2.281  -9.108   9.266  1.00  0.00    +0.027 A 
ATOM     45  C   UNL     1      -1.546  -8.210  11.350  1.00  0.00    +0.027 A 
ATOM     46  C   UNL     1      -2.615  -8.601  10.533  1.00  0.00    +0.037 A 
BRANCH  46  47
ATOM     47  N   UNL     1      -3.938  -8.466  10.912  1.00  0.00    -0.360 N 
ATOM     48  C   UNL     1      -4.462  -7.237  11.528  1.00  0.00    +0.178 C 
ATOM     49  C   UNL     1      -4.802  -9.656  11.039  1.00  0.00    +0.178 C 
ATOM     50  C   UNL     1      -4.796  -7.469  13.016  1.00  0.00    +0.284 C 
ATOM     51  C   UNL     1      -5.139  -9.911  12.526  1.00  0.00    +0.284 C 
ATOM     52  N   UNL     1      -5.722  -8.673  13.207  1.00  0.00    -0.329 N 
ATOM     53  H   UNL     1      -5.725  -8.873  14.211  1.00  0.00    +0.348 HD
BRANCH  52  54
ATOM     54  C   UNL     1      -7.159  -8.380  12.836  1.00  0.00    +0.295 C 
BRANCH  54  55
ATOM     55  C   UNL     1      -8.132  -9.419  13.347  1.00  0.00    -0.012 C 
ATOM     56  C   UNL     1      -8.911 -10.209  12.569  1.00  0.00    -0.036 C 
ATOM     57  C   UNL     1      -8.255  -9.467  14.864  1.00  0.00    +0.043 C 
ATOM     58  C   UNL     1      -9.906 -11.210  13.129  1.00  0.00    +0.037 C 
ATOM     59  C   UNL     1      -8.934 -10.731  15.437  1.00  0.00    -0.031 C 
ATOM     60  C   UNL     1     -10.203 -11.022  14.617  1.00  0.00    +0.011 C 
ATOM     61  C   UNL     1      -9.320 -10.479  16.906  1.00  0.00    +0.011 C 
ATOM     62  C   UNL     1      -7.963 -11.929  15.399  1.00  0.00    +0.011 C 
BRANCH  56  63
ATOM     63  C   UNL     1      -8.877 -10.172  11.095  1.00  0.00    -0.022 A 
ATOM     64  C   UNL     1      -9.727  -9.313  10.385  1.00  0.00    +0.010 A 
ATOM     65  C   UNL     1      -8.012 -11.020  10.388  1.00  0.00    +0.010 A 
ATOM     66  C   UNL     1      -9.685  -9.274   8.989  1.00  0.00    +0.021 A 
ATOM     67  C   UNL     1      -7.974 -10.982   8.991  1.00  0.00    +0.021 A 
ATOM     68  C   UNL     1      -8.805 -10.103   8.298  1.00  0.00    +0.041 A 
ATOM     69 Cl   UNL     1      -8.745 -10.045   6.581  1.00  0.00    -0.084 Cl
ENDBRANCH  56  63
ENDBRANCH  54  55
ENDBRANCH  52  54
ENDBRANCH  46  47
ENDBRANCH  38  41
ENDBRANCH   1  37
TORSDOF 17
ENDMDL
MODEL 8
REMARK VINA RESULT:    -8.095      3.806      6.356
REMARK INTER + INTRA:         -19.681
REMARK INTER:                 -16.953
REMARK INTRA:                  -2.729
REMARK UNBOUND:                -3.541
REMARK SMILES CC1(C)CCC(c2ccc(Cl)cc2)=C(C[NH+]2CCN(c3ccc(C(=O)NS(=O)(=O)c4ccc(N[C@H](CC[NH+]5CCOCC5)CSc5ccccc5)c(S(=O)(=O)C(F)(F)F)c4)cc3)CC2)C1
REMARK SMILES IDX 27 1 28 2 29 3 30 4 33 5 52 6 32 7 60 8 31 9 34 10 35 12
REMARK SMILES IDX 36 13 37 14 38 15 39 16 43 17 40 18 42 19 41 20 44 22 45 23
REMARK SMILES IDX 46 24 47 25 51 26 48 27 50 28 49 29 53 30 54 31 55 32 56 33
REMARK SMILES IDX 57 34 58 35 59 36 26 37 24 38 25 39 23 41 22 42 61 43 21 44
REMARK SMILES IDX 62 45 20 46 19 47 18 48 63 49 17 50 64 51 16 52 15 54 14 55
REMARK SMILES IDX 6 56 65 57 5 58 2 59 4 60 1 61 3 62 7 63 8 64 13 65 9 66
REMARK SMILES IDX 12 67 10 68 11 69
REMARK H PARENT 34 11 38 21 26 40 16 53
ROOT
ATOM      1  S   UNL     1     -10.844 -23.497  10.403  1.00  0.00    +0.264 S 
ATOM      2  O   UNL     1     -11.014 -23.698   8.980  1.00  0.00    -0.201 OA
ATOM      3  O   UNL     1      -9.557 -23.648  11.039  1.00  0.00    -0.201 OA
ENDROOT
BRANCH   1   4
ATOM      4  C   UNL     1     -12.015 -24.565  11.203  1.00  0.00    +0.089 A 
ATOM      5  C   UNL     1     -13.971 -26.177  12.440  1.00  0.00    +0.054 A 
ATOM      6  C   UNL     1     -13.272 -25.203  13.174  1.00  0.00    +0.101 A 
ATOM      7  C   UNL     1     -13.644 -26.339  11.080  1.00  0.00    +0.028 A 
ATOM      8  C   UNL     1     -12.320 -24.373  12.550  1.00  0.00    +0.045 A 
ATOM      9  C   UNL     1     -12.669 -25.550  10.466  1.00  0.00    +0.024 A 
BRANCH   5  10
ATOM     10  N   UNL     1     -15.037 -26.931  12.990  1.00  0.00    -0.380 N 
ATOM     11  H   UNL     1     -15.852 -26.639  12.432  1.00  0.00    +0.160 HD
BRANCH  10  12
ATOM     12  C   UNL     1     -14.926 -28.411  12.848  1.00  0.00    +0.095 C 
BRANCH  12  13
ATOM     13  C   UNL     1     -16.356 -28.996  12.959  1.00  0.00    +0.087 C 
BRANCH  13  14
ATOM     14  C   UNL     1     -16.754 -30.070  11.945  1.00  0.00    +0.264 C 
BRANCH  14  15
ATOM     15  N   UNL     1     -18.135 -29.896  11.367  1.00  0.00    -0.331 N 
ATOM     16  C   UNL     1     -18.056 -29.454   9.903  1.00  0.00    +0.291 C 
ATOM     17  C   UNL     1     -19.024 -28.932  12.143  1.00  0.00    +0.291 C 
ATOM     18  C   UNL     1     -19.455 -29.238   9.317  1.00  0.00    +0.221 C 
ATOM     19  C   UNL     1     -20.375 -28.770  11.438  1.00  0.00    +0.221 C 
ATOM     20  O   UNL     1     -20.199 -28.300  10.099  1.00  0.00    -0.370 OA
ATOM     21  H   UNL     1     -18.615 -30.825  11.364  1.00  0.00    +0.348 HD
ENDBRANCH  14  15
ENDBRANCH  13  14
ENDBRANCH  12  13
BRANCH  12  22
ATOM     22  C   UNL     1     -13.913 -29.002  13.860  1.00  0.00    +0.100 C 
BRANCH  22  23
ATOM     23  S   UNL     1     -12.266 -29.386  13.167  1.00  0.00    -0.124 SA
BRANCH  23  24
ATOM     24  C   UNL     1     -12.658 -30.797  12.142  1.00  0.00    +0.007 A 
ATOM     25  C   UNL     1     -12.092 -30.975  10.875  1.00  0.00    +0.015 A 
ATOM     26  C   UNL     1     -13.561 -31.748  12.629  1.00  0.00    +0.015 A 
ATOM     27  C   UNL     1     -12.454 -32.073  10.090  1.00  0.00    +0.001 A 
ATOM     28  C   UNL     1     -13.918 -32.847  11.845  1.00  0.00    +0.001 A 
ATOM     29  C   UNL     1     -13.370 -33.005  10.574  1.00  0.00    +0.000 A 
ENDBRANCH  23  24
ENDBRANCH  22  23
ENDBRANCH  12  22
ENDBRANCH  10  12
ENDBRANCH   5  10
BRANCH   6  30
ATOM     30  S   UNL     1     -13.505 -24.951  14.931  1.00  0.00    +0.278 S 
ATOM     31  O   UNL     1     -13.282 -23.534  15.162  1.00  0.00    -0.214 OA
ATOM     32  O   UNL     1     -14.787 -25.532  15.331  1.00  0.00    -0.214 OA
BRANCH  30  33
ATOM     33  C   UNL     1     -12.147 -25.949  15.630  1.00  0.00    +0.501 C 
ATOM     34  F   UNL     1     -11.393 -25.227  16.508  1.00  0.00    -0.156 F 
ATOM     35  F   UNL     1     -11.292 -26.401  14.672  1.00  0.00    -0.156 F 
ATOM     36  F   UNL     1     -12.588 -27.043  16.313  1.00  0.00    -0.156 F 
ENDBRANCH  30  33
ENDBRANCH   6  30
ENDBRANCH   1   4
BRANCH   1  37
ATOM     37  N   UNL     1     -11.394 -21.956  10.695  1.00  0.00    -0.245 N 
ATOM     38  C   UNL     1     -11.361 -21.310  11.933  1.00  0.00    +0.264 C 
ATOM     39  O   UNL     1     -11.189 -21.906  12.986  1.00  0.00    -0.268 OA
ATOM     40  H   UNL     1     -11.781 -21.530   9.859  1.00  0.00    +0.183 HD
BRANCH  38  41
ATOM     41  C   UNL     1     -11.598 -19.836  11.911  1.00  0.00    +0.040 A 
ATOM     42  C   UNL     1     -11.284 -18.992  12.978  1.00  0.00    +0.016 A 
ATOM     43  C   UNL     1     -12.198 -19.276  10.778  1.00  0.00    +0.016 A 
ATOM     44  C   UNL     1     -11.555 -17.616  12.896  1.00  0.00    +0.027 A 
ATOM     45  C   UNL     1     -12.473 -17.900  10.714  1.00  0.00    +0.027 A 
ATOM     46  C   UNL     1     -12.152 -17.034  11.767  1.00  0.00    +0.037 A 
BRANCH  46  47
ATOM     47  N   UNL     1     -12.437 -15.680  11.738  1.00  0.00    -0.360 N 
ATOM     48  C   UNL     1     -11.563 -14.703  11.069  1.00  0.00    +0.178 C 
ATOM     49  C   UNL     1     -13.433 -15.109  12.666  1.00  0.00    +0.178 C 
ATOM     50  C   UNL     1     -10.847 -13.811  12.104  1.00  0.00    +0.284 C 
ATOM     51  C   UNL     1     -12.731 -14.220  13.717  1.00  0.00    +0.284 C 
ATOM     52  N   UNL     1     -11.837 -13.160  13.073  1.00  0.00    -0.329 N 
ATOM     53  H   UNL     1     -11.274 -12.762  13.831  1.00  0.00    +0.348 HD
BRANCH  52  54
ATOM     54  C   UNL     1     -12.591 -12.001  12.461  1.00  0.00    +0.295 C 
BRANCH  54  55
ATOM     55  C   UNL     1     -12.387 -10.698  13.200  1.00  0.00    -0.012 C 
ATOM     56  C   UNL     1     -11.583  -9.686  12.792  1.00  0.00    -0.036 C 
ATOM     57  C   UNL     1     -13.106 -10.620  14.540  1.00  0.00    +0.043 C 
ATOM     58  C   UNL     1     -11.376  -8.411  13.589  1.00  0.00    +0.037 C 
ATOM     59  C   UNL     1     -13.234  -9.204  15.145  1.00  0.00    -0.031 C 
ATOM     60  C   UNL     1     -11.872  -8.496  15.033  1.00  0.00    +0.011 C 
ATOM     61  C   UNL     1     -13.631  -9.319  16.629  1.00  0.00    +0.011 C 
ATOM     62  C   UNL     1     -14.336  -8.405  14.419  1.00  0.00    +0.011 C 
BRANCH  56  63
ATOM     63  C   UNL     1     -10.819  -9.723  11.530  1.00  0.00    -0.022 A 
ATOM     64  C   UNL     1      -9.549 -10.314  11.486  1.00  0.00    +0.010 A 
ATOM     65  C   UNL     1     -11.347  -9.141  10.369  1.00  0.00    +0.010 A 
ATOM     66  C   UNL     1      -8.831 -10.356  10.287  1.00  0.00    +0.021 A 
ATOM     67  C   UNL     1     -10.627  -9.181   9.170  1.00  0.00    +0.021 A 
ATOM     68  C   UNL     1      -9.376  -9.795   9.133  1.00  0.00    +0.041 A 
ATOM     69 Cl   UNL     1      -8.500  -9.859   7.656  1.00  0.00    -0.084 Cl
ENDBRANCH  56  63
ENDBRANCH  54  55
ENDBRANCH  52  54
ENDBRANCH  46  47
ENDBRANCH  38  41
ENDBRANCH   1  37
TORSDOF 17
ENDMDL
MODEL 9
REMARK VINA RESULT:    -8.041      3.731      6.761
REMARK INTER + INTRA:         -19.574
REMARK INTER:                 -16.251
REMARK INTRA:                  -3.322
REMARK UNBOUND:                -3.541
REMARK SMILES CC1(C)CCC(c2ccc(Cl)cc2)=C(C[NH+]2CCN(c3ccc(C(=O)NS(=O)(=O)c4ccc(N[C@H](CC[NH+]5CCOCC5)CSc5ccccc5)c(S(=O)(=O)C(F)(F)F)c4)cc3)CC2)C1
REMARK SMILES IDX 27 1 28 2 29 3 30 4 33 5 52 6 32 7 60 8 31 9 34 10 35 12
REMARK SMILES IDX 36 13 37 14 38 15 39 16 43 17 40 18 42 19 41 20 44 22 45 23
REMARK SMILES IDX 46 24 47 25 51 26 48 27 50 28 49 29 53 30 54 31 55 32 56 33
REMARK SMILES IDX 57 34 58 35 59 36 26 37 24 38 25 39 23 41 22 42 61 43 21 44
REMARK SMILES IDX 62 45 20 46 19 47 18 48 63 49 17 50 64 51 16 52 15 54 14 55
REMARK SMILES IDX 6 56 65 57 5 58 2 59 4 60 1 61 3 62 7 63 8 64 13 65 9 66
REMARK SMILES IDX 12 67 10 68 11 69
REMARK H PARENT 34 11 38 21 26 40 16 53
ROOT
ATOM      1  S   UNL     1     -10.321 -24.198  10.366  1.00  0.00    +0.264 S 
ATOM      2  O   UNL     1     -10.680 -24.391   8.978  1.00  0.00    -0.201 OA
ATOM      3  O   UNL     1      -9.021 -24.574  10.868  1.00  0.00    -0.201 OA
ENDROOT
BRANCH   1   4
ATOM      4  C   UNL     1     -11.572 -25.013  11.326  1.00  0.00    +0.089 A 
ATOM      5  C   UNL     1     -13.651 -26.233  12.790  1.00  0.00    +0.054 A 
ATOM      6  C   UNL     1     -12.961 -25.122  13.307  1.00  0.00    +0.101 A 
ATOM      7  C   UNL     1     -13.252 -26.731  11.535  1.00  0.00    +0.028 A 
ATOM      8  C   UNL     1     -11.947 -24.489  12.562  1.00  0.00    +0.045 A 
ATOM      9  C   UNL     1     -12.216 -26.136  10.811  1.00  0.00    +0.024 A 
BRANCH   5  10
ATOM     10  N   UNL     1     -14.773 -26.807  13.438  1.00  0.00    -0.380 N 
ATOM     11  H   UNL     1     -15.276 -27.279  12.674  1.00  0.00    +0.160 HD
BRANCH  10  12
ATOM     12  C   UNL     1     -14.468 -27.848  14.462  1.00  0.00    +0.095 C 
BRANCH  12  13
ATOM     13  C   UNL     1     -13.247 -28.653  13.954  1.00  0.00    +0.087 C 
BRANCH  13  14
ATOM     14  C   UNL     1     -13.349 -30.180  13.991  1.00  0.00    +0.264 C 
BRANCH  14  15
ATOM     15  N   UNL     1     -13.279 -30.839  12.637  1.00  0.00    -0.331 N 
ATOM     16  C   UNL     1     -11.957 -30.503  11.942  1.00  0.00    +0.291 C 
ATOM     17  C   UNL     1     -14.443 -30.502  11.713  1.00  0.00    +0.291 C 
ATOM     18  C   UNL     1     -11.893 -31.138  10.549  1.00  0.00    +0.221 C 
ATOM     19  C   UNL     1     -14.243 -31.161  10.344  1.00  0.00    +0.221 C 
ATOM     20  O   UNL     1     -13.011 -30.741   9.751  1.00  0.00    -0.370 OA
ATOM     21  H   UNL     1     -13.282 -31.876  12.772  1.00  0.00    +0.348 HD
ENDBRANCH  14  15
ENDBRANCH  13  14
ENDBRANCH  12  13
BRANCH  12  22
ATOM     22  C   UNL     1     -15.715 -28.709  14.782  1.00  0.00    +0.100 C 
BRANCH  22  23
ATOM     23  S   UNL     1     -17.108 -27.799  15.537  1.00  0.00    -0.124 SA
BRANCH  23  24
ATOM     24  C   UNL     1     -18.341 -27.956  14.253  1.00  0.00    +0.007 A 
ATOM     25  C   UNL     1     -19.515 -27.195  14.254  1.00  0.00    +0.015 A 
ATOM     26  C   UNL     1     -18.118 -28.870  13.218  1.00  0.00    +0.015 A 
ATOM     27  C   UNL     1     -20.472 -27.374  13.251  1.00  0.00    +0.001 A 
ATOM     28  C   UNL     1     -19.073 -29.045  12.214  1.00  0.00    +0.001 A 
ATOM     29  C   UNL     1     -20.251 -28.302  12.234  1.00  0.00    +0.000 A 
ENDBRANCH  23  24
ENDBRANCH  22  23
ENDBRANCH  12  22
ENDBRANCH  10  12
ENDBRANCH   5  10
BRANCH   6  30
ATOM     30  S   UNL     1     -13.287 -24.441  14.931  1.00  0.00    +0.278 S 
ATOM     31  O   UNL     1     -12.842 -23.059  14.878  1.00  0.00    -0.214 OA
ATOM     32  O   UNL     1     -14.677 -24.714  15.294  1.00  0.00    -0.214 OA
BRANCH  30  33
ATOM     33  C   UNL     1     -12.181 -25.444  15.980  1.00  0.00    +0.501 C 
ATOM     34  F   UNL     1     -11.404 -24.662  16.783  1.00  0.00    -0.156 F 
ATOM     35  F   UNL     1     -11.327 -26.209  15.246  1.00  0.00    -0.156 F 
ATOM     36  F   UNL     1     -12.857 -26.291  16.808  1.00  0.00    -0.156 F 
ENDBRANCH  30  33
ENDBRANCH   6  30
ENDBRANCH   1   4
BRANCH   1  37
ATOM     37  N   UNL     1     -10.542 -22.576  10.653  1.00  0.00    -0.245 N 
ATOM     38  C   UNL     1     -11.760 -21.899  10.552  1.00  0.00    +0.264 C 
ATOM     39  O   UNL     1     -12.728 -22.362   9.970  1.00  0.00    -0.268 OA
ATOM     40  H   UNL     1      -9.672 -22.115  10.900  1.00  0.00    +0.183 HD
BRANCH  38  41
ATOM     41  C   UNL     1     -11.804 -20.536  11.160  1.00  0.00    +0.040 A 
ATOM     42  C   UNL     1     -12.274 -19.409  10.483  1.00  0.00    +0.016 A 
ATOM     43  C   UNL     1     -11.318 -20.371  12.461  1.00  0.00    +0.016 A 
ATOM     44  C   UNL     1     -12.266 -18.152  11.109  1.00  0.00    +0.027 A 
ATOM     45  C   UNL     1     -11.307 -19.107  13.072  1.00  0.00    +0.027 A 
ATOM     46  C   UNL     1     -11.788 -17.966  12.416  1.00  0.00    +0.037 A 
BRANCH  46  47
ATOM     47  N   UNL     1     -11.763 -16.706  12.986  1.00  0.00    -0.360 N 
ATOM     48  C   UNL     1     -12.720 -16.289  14.022  1.00  0.00    +0.178 C 
ATOM     49  C   UNL     1     -11.009 -15.612  12.342  1.00  0.00    +0.178 C 
ATOM     50  C   UNL     1     -13.710 -15.245  13.465  1.00  0.00    +0.284 C 
ATOM     51  C   UNL     1     -11.986 -14.561  11.768  1.00  0.00    +0.284 C 
ATOM     52  N   UNL     1     -12.982 -14.065  12.817  1.00  0.00    -0.329 N 
ATOM     53  H   UNL     1     -13.695 -13.536  12.306  1.00  0.00    +0.348 HD
BRANCH  52  54
ATOM     54  C   UNL     1     -12.394 -13.103  13.825  1.00  0.00    +0.295 C 
BRANCH  54  55
ATOM     55  C   UNL     1     -12.454 -11.659  13.381  1.00  0.00    -0.012 C 
ATOM     56  C   UNL     1     -11.395 -10.927  12.957  1.00  0.00    -0.036 C 
ATOM     57  C   UNL     1     -13.828 -11.017  13.527  1.00  0.00    +0.043 C 
ATOM     58  C   UNL     1     -11.496  -9.465  12.560  1.00  0.00    +0.037 C 
ATOM     59  C   UNL     1     -14.028  -9.693  12.755  1.00  0.00    -0.031 C 
ATOM     60  C   UNL     1     -12.801  -8.795  12.992  1.00  0.00    +0.011 C 
ATOM     61  C   UNL     1     -15.290  -8.985  13.282  1.00  0.00    +0.011 C 
ATOM     62  C   UNL     1     -14.231  -9.971  11.252  1.00  0.00    +0.011 C 
BRANCH  56  63
ATOM     63  C   UNL     1     -10.031 -11.476  12.845  1.00  0.00    -0.022 A 
ATOM     64  C   UNL     1      -9.167 -11.466  13.949  1.00  0.00    +0.010 A 
ATOM     65  C   UNL     1      -9.574 -11.987  11.621  1.00  0.00    +0.010 A 
ATOM     66  C   UNL     1      -7.878 -11.996  13.842  1.00  0.00    +0.021 A 
ATOM     67  C   UNL     1      -8.283 -12.513  11.514  1.00  0.00    +0.021 A 
ATOM     68  C   UNL     1      -7.444 -12.523  12.627  1.00  0.00    +0.041 A 
ATOM     69 Cl   UNL     1      -5.863 -13.186  12.499  1.00  0.00    -0.084 Cl
ENDBRANCH  56  63
ENDBRANCH  54  55
ENDBRANCH  52  54
ENDBRANCH  46  47
ENDBRANCH  38  41
ENDBRANCH   1  37
TORSDOF 17
ENDMDL
