MODEL 1
REMARK VINA RESULT:   -10.569      0.000      0.000
REMARK INTER + INTRA:         -23.580
REMARK INTER:                 -20.455
REMARK INTRA:                  -3.124
REMARK UNBOUND:                -3.124
REMARK SMILES C[NH+](C)CC[C@H](CSc1ccccc1)Nc1ccc(S(=O)(=O)NC(=O)c2ccc(N3CC[NH+](Cc4ccccc4-c4ccc(Cl)cc4)CC3)cc2)cc1[N+](=O)[O-]
REMARK SMILES IDX 20 1 21 2 22 3 23 4 24 5 25 6 26 8 29 9 28 10 50 11 27 12
REMARK SMILES IDX 51 13 30 14 32 15 33 16 31 17 48 18 49 19 34 21 35 22 36 23
REMARK SMILES IDX 40 24 37 25 39 26 38 27 41 28 42 29 47 30 43 31 46 32 44 33
REMARK SMILES IDX 45 34 19 35 18 36 52 37 17 38 53 39 16 40 54 41 55 42 56 43
REMARK SMILES IDX 15 44 6 46 5 47 4 48 2 49 1 50 3 51 7 53 8 54 9 55 10 56
REMARK SMILES IDX 14 57 11 58 13 59 12 60
REMARK H PARENT 23 7 33 20 15 45 2 52
ROOT
ATOM      1  S   UNL     1     -11.918  -9.536  10.900  1.00  0.00    +0.264 S 
ATOM      2  O   UNL     1     -12.717  -9.139   9.764  1.00  0.00    -0.201 OA
ATOM      3  O   UNL     1     -12.122  -8.942  12.204  1.00  0.00    -0.201 OA
ENDROOT
BRANCH   1   4
ATOM      4  N   UNL     1     -12.094 -11.174  11.134  1.00  0.00    -0.245 N 
ATOM      5  C   UNL     1     -13.289 -11.795  11.507  1.00  0.00    +0.264 C 
ATOM      6  O   UNL     1     -14.361 -11.212  11.529  1.00  0.00    -0.268 OA
ATOM      7  H   UNL     1     -11.198 -11.646  11.117  1.00  0.00    +0.183 HD
BRANCH   5   8
ATOM      8  C   UNL     1     -13.193 -13.238  11.876  1.00  0.00    +0.040 A 
ATOM      9  C   UNL     1     -13.134 -16.032  12.456  1.00  0.00    +0.037 A 
ATOM     10  C   UNL     1     -12.925 -15.070  13.455  1.00  0.00    +0.027 A 
ATOM     11  C   UNL     1     -13.337 -15.553  11.151  1.00  0.00    +0.027 A 
ATOM     12  C   UNL     1     -12.959 -13.692  13.177  1.00  0.00    +0.016 A 
ATOM     13  C   UNL     1     -13.369 -14.183  10.862  1.00  0.00    +0.016 A 
BRANCH   9  14
ATOM     14  N   UNL     1     -13.112 -17.417  12.694  1.00  0.00    -0.360 N 
ATOM     15  C   UNL     1     -11.765 -19.434  13.283  1.00  0.00    +0.284 C 
ATOM     16  N   UNL     1     -12.799 -20.322  12.605  1.00  0.00    -0.328 N 
ATOM     17  C   UNL     1     -11.751 -18.008  12.690  1.00  0.00    +0.178 C 
ATOM     18  C   UNL     1     -14.173 -19.666  12.654  1.00  0.00    +0.284 C 
ATOM     19  C   UNL     1     -14.149 -18.249  12.046  1.00  0.00    +0.178 C 
ATOM     20  H   UNL     1     -12.863 -21.166  13.185  1.00  0.00    +0.348 HD
BRANCH  16  21
ATOM     21  C   UNL     1     -12.366 -20.801  11.240  1.00  0.00    +0.299 C 
BRANCH  21  22
ATOM     22  C   UNL     1     -13.220 -21.907  10.664  1.00  0.00    +0.014 A 
ATOM     23  C   UNL     1     -14.611 -21.861  10.888  1.00  0.00    +0.010 A 
ATOM     24  C   UNL     1     -12.674 -22.980   9.917  1.00  0.00    -0.010 A 
ATOM     25  C   UNL     1     -15.448 -22.862  10.396  1.00  0.00    +0.001 A 
ATOM     26  C   UNL     1     -13.541 -23.977   9.433  1.00  0.00    +0.009 A 
ATOM     27  C   UNL     1     -14.913 -23.920   9.671  1.00  0.00    +0.001 A 
BRANCH  24  28
ATOM     28  C   UNL     1     -11.237 -23.101   9.632  1.00  0.00    -0.018 A 
ATOM     29  C   UNL     1     -10.420 -23.925  10.427  1.00  0.00    +0.010 A 
ATOM     30  C   UNL     1     -10.649 -22.402   8.565  1.00  0.00    +0.010 A 
ATOM     31  C   UNL     1      -9.047 -24.016  10.183  1.00  0.00    +0.021 A 
ATOM     32  C   UNL     1      -9.276 -22.495   8.321  1.00  0.00    +0.021 A 
ATOM     33  C   UNL     1      -8.480 -23.296   9.136  1.00  0.00    +0.041 A 
ATOM     34 Cl   UNL     1      -6.788 -23.392   8.849  1.00  0.00    -0.084 Cl
ENDBRANCH  24  28
ENDBRANCH  21  22
ENDBRANCH  16  21
ENDBRANCH   9  14
ENDBRANCH   5   8
ENDBRANCH   1   4
BRANCH   1  35
ATOM     35  C   UNL     1     -10.202  -9.330  10.513  1.00  0.00    +0.094 A 
ATOM     36  C   UNL     1      -9.316  -8.881  11.489  1.00  0.00    +0.025 A 
ATOM     37  C   UNL     1      -9.740  -9.663   9.244  1.00  0.00    +0.110 A 
ATOM     38  C   UNL     1      -7.946  -8.788  11.203  1.00  0.00    +0.034 A 
ATOM     39  C   UNL     1      -8.364  -9.551   8.964  1.00  0.00    +0.293 A 
ATOM     40  C   UNL     1      -7.421  -9.166   9.954  1.00  0.00    +0.113 A 
BRANCH  39  41
ATOM     41  N   UNL     1      -7.943  -9.851   7.589  1.00  0.00    +0.065 N 
ATOM     42  O   UNL     1      -6.736 -10.038   7.374  1.00  0.00    -0.258 OA
ATOM     43  O   UNL     1      -8.827  -9.891   6.719  1.00  0.00    -0.258 OA
ENDBRANCH  39  41
BRANCH  40  44
ATOM     44  N   UNL     1      -6.047  -9.035   9.673  1.00  0.00    -0.376 N 
ATOM     45  H   UNL     1      -5.867  -9.342   8.703  1.00  0.00    +0.161 HD
BRANCH  44  46
ATOM     46  C   UNL     1      -5.010  -9.573  10.578  1.00  0.00    +0.095 C 
BRANCH  46  47
ATOM     47  C   UNL     1      -3.696  -8.825  10.241  1.00  0.00    +0.087 C 
BRANCH  47  48
ATOM     48  C   UNL     1      -3.287  -8.980   8.779  1.00  0.00    +0.263 C 
BRANCH  48  49
ATOM     49  N   UNL     1      -2.451  -7.821   8.270  1.00  0.00    -0.340 N 
ATOM     50  C   UNL     1      -2.318  -6.691   9.253  1.00  0.00    +0.332 C 
ATOM     51  C   UNL     1      -1.126  -8.216   7.678  1.00  0.00    +0.332 C 
ATOM     52  H   UNL     1      -2.990  -7.427   7.486  1.00  0.00    +0.347 HD
ENDBRANCH  48  49
ENDBRANCH  47  48
ENDBRANCH  46  47
BRANCH  46  53
ATOM     53  C   UNL     1      -4.906 -11.118  10.495  1.00  0.00    +0.100 C 
BRANCH  53  54
ATOM     54  S   UNL     1      -5.424 -11.996  12.019  1.00  0.00    -0.124 SA
BRANCH  54  55
ATOM     55  C   UNL     1      -7.004 -12.675  11.562  1.00  0.00    +0.007 A 
ATOM     56  C   UNL     1      -8.065 -12.774  12.468  1.00  0.00    +0.015 A 
ATOM     57  C   UNL     1      -7.213 -13.042  10.227  1.00  0.00    +0.015 A 
ATOM     58  C   UNL     1      -9.305 -13.266  12.053  1.00  0.00    +0.001 A 
ATOM     59  C   UNL     1      -8.455 -13.527   9.811  1.00  0.00    +0.001 A 
ATOM     60  C   UNL     1      -9.500 -13.644  10.725  1.00  0.00    +0.000 A 
ENDBRANCH  54  55
ENDBRANCH  53  54
ENDBRANCH  46  53
ENDBRANCH  44  46
ENDBRANCH  40  44
ENDBRANCH   1  35
TORSDOF 16
ENDMDL
MODEL 2
REMARK VINA RESULT:    -9.989      2.114      3.066
REMARK INTER + INTRA:         -22.457
REMARK INTER:                 -18.518
REMARK INTRA:                  -3.940
REMARK UNBOUND:                -3.124
REMARK SMILES C[NH+](C)CC[C@H](CSc1ccccc1)Nc1ccc(S(=O)(=O)NC(=O)c2ccc(N3CC[NH+](Cc4ccccc4-c4ccc(Cl)cc4)CC3)cc2)cc1[N+](=O)[O-]
REMARK SMILES IDX 20 1 21 2 22 3 23 4 24 5 25 6 26 8 29 9 28 10 50 11 27 12
REMARK SMILES IDX 51 13 30 14 32 15 33 16 31 17 48 18 49 19 34 21 35 22 36 23
REMARK SMILES IDX 40 24 37 25 39 26 38 27 41 28 42 29 47 30 43 31 46 32 44 33
REMARK SMILES IDX 45 34 19 35 18 36 52 37 17 38 53 39 16 40 54 41 55 42 56 43
REMARK SMILES IDX 15 44 6 46 5 47 4 48 2 49 1 50 3 51 7 53 8 54 9 55 10 56
REMARK SMILES IDX 14 57 11 58 13 59 12 60
REMARK H PARENT 23 7 33 20 15 45 2 52
ROOT
ATOM      1  S   UNL     1     -12.311 -11.182  13.061  1.00  0.00    +0.264 S 
ATOM      2  O   UNL     1     -13.469 -10.650  12.380  1.00  0.00    -0.201 OA
ATOM      3  O   UNL     1     -12.150 -11.037  14.491  1.00  0.00    -0.201 OA
ENDROOT
BRANCH   1   4
ATOM      4  N   UNL     1     -12.226 -12.819  12.775  1.00  0.00    -0.245 N 
ATOM      5  C   UNL     1     -12.792 -13.458  11.669  1.00  0.00    +0.264 C 
ATOM      6  O   UNL     1     -13.256 -12.851  10.717  1.00  0.00    -0.268 OA
ATOM      7  H   UNL     1     -11.843 -13.312  13.573  1.00  0.00    +0.183 HD
BRANCH   5   8
ATOM      8  C   UNL     1     -12.793 -14.950  11.702  1.00  0.00    +0.040 A 
ATOM      9  C   UNL     1     -12.762 -17.794  11.943  1.00  0.00    +0.037 A 
ATOM     10  C   UNL     1     -12.323 -17.151  10.777  1.00  0.00    +0.027 A 
ATOM     11  C   UNL     1     -13.251 -16.972  12.972  1.00  0.00    +0.027 A 
ATOM     12  C   UNL     1     -12.330 -15.750  10.654  1.00  0.00    +0.016 A 
ATOM     13  C   UNL     1     -13.266 -15.575  12.859  1.00  0.00    +0.016 A 
BRANCH   9  14
ATOM     14  N   UNL     1     -12.766 -19.190  12.106  1.00  0.00    -0.360 N 
ATOM     15  C   UNL     1     -11.447 -21.309  12.175  1.00  0.00    +0.284 C 
ATOM     16  N   UNL     1     -12.695 -22.097  11.805  1.00  0.00    -0.328 N 
ATOM     17  C   UNL     1     -11.512 -19.852  11.665  1.00  0.00    +0.178 C 
ATOM     18  C   UNL     1     -13.943 -21.373  12.295  1.00  0.00    +0.284 C 
ATOM     19  C   UNL     1     -14.004 -19.925  11.769  1.00  0.00    +0.178 C 
ATOM     20  H   UNL     1     -12.641 -22.970  12.342  1.00  0.00    +0.348 HD
BRANCH  16  21
ATOM     21  C   UNL     1     -12.725 -22.515  10.355  1.00  0.00    +0.299 C 
BRANCH  21  22
ATOM     22  C   UNL     1     -11.395 -22.984   9.811  1.00  0.00    +0.014 A 
ATOM     23  C   UNL     1     -10.622 -22.075   9.061  1.00  0.00    +0.010 A 
ATOM     24  C   UNL     1     -10.906 -24.298  10.024  1.00  0.00    -0.010 A 
ATOM     25  C   UNL     1      -9.395 -22.455   8.519  1.00  0.00    +0.001 A 
ATOM     26  C   UNL     1      -9.665 -24.655   9.465  1.00  0.00    +0.009 A 
ATOM     27  C   UNL     1      -8.918 -23.745   8.719  1.00  0.00    +0.001 A 
BRANCH  24  28
ATOM     28  C   UNL     1     -11.644 -25.305  10.799  1.00  0.00    -0.018 A 
ATOM     29  C   UNL     1     -11.344 -25.521  12.156  1.00  0.00    +0.010 A 
ATOM     30  C   UNL     1     -12.663 -26.069  10.207  1.00  0.00    +0.010 A 
ATOM     31  C   UNL     1     -12.018 -26.501  12.889  1.00  0.00    +0.021 A 
ATOM     32  C   UNL     1     -13.338 -27.049  10.940  1.00  0.00    +0.021 A 
ATOM     33  C   UNL     1     -13.008 -27.266  12.276  1.00  0.00    +0.041 A 
ATOM     34 Cl   UNL     1     -13.823 -28.485  13.171  1.00  0.00    -0.084 Cl
ENDBRANCH  24  28
ENDBRANCH  21  22
ENDBRANCH  16  21
ENDBRANCH   9  14
ENDBRANCH   5   8
ENDBRANCH   1   4
BRANCH   1  35
ATOM     35  C   UNL     1     -10.841 -10.529  12.318  1.00  0.00    +0.094 A 
ATOM     36  C   UNL     1      -9.751 -10.185  13.113  1.00  0.00    +0.025 A 
ATOM     37  C   UNL     1     -10.767 -10.408  10.934  1.00  0.00    +0.110 A 
ATOM     38  C   UNL     1      -8.563  -9.738  12.518  1.00  0.00    +0.034 A 
ATOM     39  C   UNL     1      -9.574  -9.944  10.349  1.00  0.00    +0.293 A 
ATOM     40  C   UNL     1      -8.418  -9.651  11.122  1.00  0.00    +0.113 A 
BRANCH  39  41
ATOM     41  N   UNL     1      -9.576  -9.772   8.890  1.00  0.00    +0.065 N 
ATOM     42  O   UNL     1      -8.571 -10.130   8.257  1.00  0.00    -0.258 OA
ATOM     43  O   UNL     1     -10.587  -9.268   8.378  1.00  0.00    -0.258 OA
ENDBRANCH  39  41
BRANCH  40  44
ATOM     44  N   UNL     1      -7.228  -9.169  10.543  1.00  0.00    -0.376 N 
ATOM     45  H   UNL     1      -7.157  -9.516   9.572  1.00  0.00    +0.161 HD
BRANCH  44  46
ATOM     46  C   UNL     1      -5.923  -9.291  11.225  1.00  0.00    +0.095 C 
BRANCH  46  47
ATOM     47  C   UNL     1      -5.185  -7.945  11.014  1.00  0.00    +0.087 C 
BRANCH  47  48
ATOM     48  C   UNL     1      -3.699  -8.125  10.722  1.00  0.00    +0.263 C 
BRANCH  48  49
ATOM     49  N   UNL     1      -3.295  -7.613   9.352  1.00  0.00    -0.340 N 
ATOM     50  C   UNL     1      -2.300  -6.486   9.395  1.00  0.00    +0.332 C 
ATOM     51  C   UNL     1      -2.897  -8.684   8.375  1.00  0.00    +0.332 C 
ATOM     52  H   UNL     1      -4.151  -7.195   8.961  1.00  0.00    +0.347 HD
ENDBRANCH  48  49
ENDBRANCH  47  48
ENDBRANCH  46  47
BRANCH  46  53
ATOM     53  C   UNL     1      -5.130 -10.536  10.751  1.00  0.00    +0.100 C 
BRANCH  53  54
ATOM     54  S   UNL     1      -5.253 -11.984  11.869  1.00  0.00    -0.124 SA
BRANCH  54  55
ATOM     55  C   UNL     1      -6.761 -12.764  11.336  1.00  0.00    +0.007 A 
ATOM     56  C   UNL     1      -7.743 -13.186  12.238  1.00  0.00    +0.015 A 
ATOM     57  C   UNL     1      -7.006 -12.877   9.962  1.00  0.00    +0.015 A 
ATOM     58  C   UNL     1      -8.936 -13.746  11.772  1.00  0.00    +0.001 A 
ATOM     59  C   UNL     1      -8.200 -13.430   9.497  1.00  0.00    +0.001 A 
ATOM     60  C   UNL     1      -9.164 -13.871  10.403  1.00  0.00    +0.000 A 
ENDBRANCH  54  55
ENDBRANCH  53  54
ENDBRANCH  46  53
ENDBRANCH  44  46
ENDBRANCH  40  44
ENDBRANCH   1  35
TORSDOF 16
ENDMDL
MODEL 3
REMARK VINA RESULT:    -9.965      4.101     12.966
REMARK INTER + INTRA:         -22.410
REMARK INTER:                 -19.761
REMARK INTRA:                  -2.650
REMARK UNBOUND:                -3.124
REMARK SMILES C[NH+](C)CC[C@H](CSc1ccccc1)Nc1ccc(S(=O)(=O)NC(=O)c2ccc(N3CC[NH+](Cc4ccccc4-c4ccc(Cl)cc4)CC3)cc2)cc1[N+](=O)[O-]
REMARK SMILES IDX 20 1 21 2 22 3 23 4 24 5 25 6 26 8 29 9 28 10 50 11 27 12
REMARK SMILES IDX 51 13 30 14 32 15 33 16 31 17 48 18 49 19 34 21 35 22 36 23
REMARK SMILES IDX 40 24 37 25 39 26 38 27 41 28 42 29 47 30 43 31 46 32 44 33
REMARK SMILES IDX 45 34 19 35 18 36 52 37 17 38 53 39 16 40 54 41 55 42 56 43
REMARK SMILES IDX 15 44 6 46 5 47 4 48 2 49 1 50 3 51 7 53 8 54 9 55 10 56
REMARK SMILES IDX 14 57 11 58 13 59 12 60
REMARK H PARENT 23 7 33 20 15 45 2 52
ROOT
ATOM      1  S   UNL     1     -15.191 -16.845  12.723  1.00  0.00    +0.264 S 
ATOM      2  O   UNL     1     -15.730 -16.729  14.058  1.00  0.00    -0.201 OA
ATOM      3  O   UNL     1     -15.907 -16.326  11.578  1.00  0.00    -0.201 OA
ENDROOT
BRANCH   1   4
ATOM      4  N   UNL     1     -13.702 -16.104  12.680  1.00  0.00    -0.245 N 
ATOM      5  C   UNL     1     -13.505 -14.740  12.450  1.00  0.00    +0.264 C 
ATOM      6  O   UNL     1     -14.419 -13.931  12.431  1.00  0.00    -0.268 OA
ATOM      7  H   UNL     1     -12.952 -16.784  12.692  1.00  0.00    +0.183 HD
BRANCH   5   8
ATOM      8  C   UNL     1     -12.093 -14.306  12.234  1.00  0.00    +0.040 A 
ATOM      9  C   UNL     1      -9.355 -13.647  11.769  1.00  0.00    +0.037 A 
ATOM     10  C   UNL     1     -10.094 -13.038  12.795  1.00  0.00    +0.027 A 
ATOM     11  C   UNL     1     -10.040 -14.570  10.961  1.00  0.00    +0.027 A 
ATOM     12  C   UNL     1     -11.441 -13.363  13.033  1.00  0.00    +0.016 A 
ATOM     13  C   UNL     1     -11.383 -14.899  11.187  1.00  0.00    +0.016 A 
BRANCH   9  14
ATOM     14  N   UNL     1      -8.007 -13.353  11.502  1.00  0.00    -0.360 N 
ATOM     15  C   UNL     1      -5.731 -12.884  12.414  1.00  0.00    +0.284 C 
ATOM     16  N   UNL     1      -5.370 -12.147  11.133  1.00  0.00    -0.328 N 
ATOM     17  C   UNL     1      -7.252 -12.863  12.683  1.00  0.00    +0.178 C 
ATOM     18  C   UNL     1      -6.168 -12.703   9.960  1.00  0.00    +0.284 C 
ATOM     19  C   UNL     1      -7.684 -12.664  10.234  1.00  0.00    +0.178 C 
ATOM     20  H   UNL     1      -4.387 -12.379  10.947  1.00  0.00    +0.348 HD
BRANCH  16  21
ATOM     21  C   UNL     1      -5.411 -10.645  11.281  1.00  0.00    +0.299 C 
BRANCH  21  22
ATOM     22  C   UNL     1      -4.804  -9.884  10.124  1.00  0.00    +0.014 A 
ATOM     23  C   UNL     1      -3.399  -9.840  10.017  1.00  0.00    +0.010 A 
ATOM     24  C   UNL     1      -5.593  -9.217   9.154  1.00  0.00    -0.010 A 
ATOM     25  C   UNL     1      -2.782  -9.141   8.982  1.00  0.00    +0.001 A 
ATOM     26  C   UNL     1      -4.944  -8.517   8.121  1.00  0.00    +0.009 A 
ATOM     27  C   UNL     1      -3.553  -8.478   8.035  1.00  0.00    +0.001 A 
BRANCH  24  28
ATOM     28  C   UNL     1      -7.062  -9.218   9.187  1.00  0.00    -0.018 A 
ATOM     29  C   UNL     1      -7.749  -8.811  10.345  1.00  0.00    +0.010 A 
ATOM     30  C   UNL     1      -7.811  -9.620   8.070  1.00  0.00    +0.010 A 
ATOM     31  C   UNL     1      -9.145  -8.844  10.396  1.00  0.00    +0.021 A 
ATOM     32  C   UNL     1      -9.208  -9.651   8.120  1.00  0.00    +0.021 A 
ATOM     33  C   UNL     1      -9.869  -9.270   9.285  1.00  0.00    +0.041 A 
ATOM     34 Cl   UNL     1     -11.584  -9.329   9.353  1.00  0.00    -0.084 Cl
ENDBRANCH  24  28
ENDBRANCH  21  22
ENDBRANCH  16  21
ENDBRANCH   9  14
ENDBRANCH   5   8
ENDBRANCH   1   4
BRANCH   1  35
ATOM     35  C   UNL     1     -14.845 -18.547  12.375  1.00  0.00    +0.094 A 
ATOM     36  C   UNL     1     -15.750 -19.306  11.638  1.00  0.00    +0.025 A 
ATOM     37  C   UNL     1     -13.643 -19.105  12.801  1.00  0.00    +0.110 A 
ATOM     38  C   UNL     1     -15.441 -20.632  11.300  1.00  0.00    +0.034 A 
ATOM     39  C   UNL     1     -13.351 -20.441  12.469  1.00  0.00    +0.293 A 
ATOM     40  C   UNL     1     -14.217 -21.224  11.658  1.00  0.00    +0.113 A 
BRANCH  39  41
ATOM     41  N   UNL     1     -12.101 -20.997  13.003  1.00  0.00    +0.065 N 
ATOM     42  O   UNL     1     -11.328 -21.564  12.215  1.00  0.00    -0.258 OA
ATOM     43  O   UNL     1     -11.897 -20.871  14.220  1.00  0.00    -0.258 OA
ENDBRANCH  39  41
BRANCH  40  44
ATOM     44  N   UNL     1     -13.938 -22.567  11.339  1.00  0.00    -0.376 N 
ATOM     45  H   UNL     1     -13.160 -22.903  11.931  1.00  0.00    +0.161 HD
BRANCH  44  46
ATOM     46  C   UNL     1     -13.746 -23.014   9.944  1.00  0.00    +0.095 C 
BRANCH  46  47
ATOM     47  C   UNL     1     -13.756 -24.563   9.970  1.00  0.00    +0.087 C 
BRANCH  47  48
ATOM     48  C   UNL     1     -13.324 -25.134  11.317  1.00  0.00    +0.263 C 
BRANCH  48  49
ATOM     49  N   UNL     1     -12.616 -26.470  11.197  1.00  0.00    -0.340 N 
ATOM     50  C   UNL     1     -11.586 -26.709  12.267  1.00  0.00    +0.332 C 
ATOM     51  C   UNL     1     -13.530 -27.650  11.017  1.00  0.00    +0.332 C 
ATOM     52  H   UNL     1     -12.078 -26.410  10.321  1.00  0.00    +0.347 HD
ENDBRANCH  48  49
ENDBRANCH  47  48
ENDBRANCH  46  47
BRANCH  46  53
ATOM     53  C   UNL     1     -12.480 -22.394   9.300  1.00  0.00    +0.100 C 
BRANCH  53  54
ATOM     54  S   UNL     1     -11.567 -23.524   8.181  1.00  0.00    -0.124 SA
BRANCH  54  55
ATOM     55  C   UNL     1      -9.929 -23.528   8.879  1.00  0.00    +0.007 A 
ATOM     56  C   UNL     1      -8.900 -22.728   8.374  1.00  0.00    +0.015 A 
ATOM     57  C   UNL     1      -9.694 -24.296  10.027  1.00  0.00    +0.015 A 
ATOM     58  C   UNL     1      -7.644 -22.724   8.985  1.00  0.00    +0.001 A 
ATOM     59  C   UNL     1      -8.441 -24.286  10.642  1.00  0.00    +0.001 A 
ATOM     60  C   UNL     1      -7.413 -23.504  10.118  1.00  0.00    +0.000 A 
ENDBRANCH  54  55
ENDBRANCH  53  54
ENDBRANCH  46  53
ENDBRANCH  44  46
ENDBRANCH  40  44
ENDBRANCH   1  35
TORSDOF 16
ENDMDL
MODEL 4
REMARK VINA RESULT:    -9.719      2.024      2.776
REMARK INTER + INTRA:         -21.934
REMARK INTER:                 -18.084
REMARK INTRA:                  -3.850
REMARK UNBOUND:                -3.124
REMARK SMILES C[NH+](C)CC[C@H](CSc1ccccc1)Nc1ccc(S(=O)(=O)NC(=O)c2ccc(N3CC[NH+](Cc4ccccc4-c4ccc(Cl)cc4)CC3)cc2)cc1[N+](=O)[O-]
REMARK SMILES IDX 20 1 21 2 22 3 23 4 24 5 25 6 26 8 29 9 28 10 50 11 27 12
REMARK SMILES IDX 51 13 30 14 32 15 33 16 31 17 48 18 49 19 34 21 35 22 36 23
REMARK SMILES IDX 40 24 37 25 39 26 38 27 41 28 42 29 47 30 43 31 46 32 44 33
REMARK SMILES IDX 45 34 19 35 18 36 52 37 17 38 53 39 16 40 54 41 55 42 56 43
REMARK SMILES IDX 15 44 6 46 5 47 4 48 2 49 1 50 3 51 7 53 8 54 9 55 10 56
REMARK SMILES IDX 14 57 11 58 13 59 12 60
REMARK H PARENT 23 7 33 20 15 45 2 52
ROOT
ATOM      1  S   UNL     1     -12.205 -10.899  11.447  1.00  0.00    +0.264 S 
ATOM      2  O   UNL     1     -12.716 -10.576  10.134  1.00  0.00    -0.201 OA
ATOM      3  O   UNL     1     -12.895 -10.472  12.645  1.00  0.00    -0.201 OA
ENDROOT
BRANCH   1   4
ATOM      4  N   UNL     1     -12.077 -12.552  11.582  1.00  0.00    -0.245 N 
ATOM      5  C   UNL     1     -13.137 -13.444  11.399  1.00  0.00    +0.264 C 
ATOM      6  O   UNL     1     -14.221 -13.105  10.954  1.00  0.00    -0.268 OA
ATOM      7  H   UNL     1     -11.175 -12.821  11.956  1.00  0.00    +0.183 HD
BRANCH   5   8
ATOM      8  C   UNL     1     -12.872 -14.864  11.774  1.00  0.00    +0.040 A 
ATOM      9  C   UNL     1     -12.540 -17.595  12.535  1.00  0.00    +0.037 A 
ATOM     10  C   UNL     1     -11.515 -16.654  12.712  1.00  0.00    +0.027 A 
ATOM     11  C   UNL     1     -13.723 -17.135  11.933  1.00  0.00    +0.027 A 
ATOM     12  C   UNL     1     -11.675 -15.306  12.344  1.00  0.00    +0.016 A 
ATOM     13  C   UNL     1     -13.892 -15.795  11.560  1.00  0.00    +0.016 A 
BRANCH   9  14
ATOM     14  N   UNL     1     -12.422 -18.949  12.893  1.00  0.00    -0.360 N 
ATOM     15  C   UNL     1     -10.990 -20.993  12.966  1.00  0.00    +0.284 C 
ATOM     16  N   UNL     1     -12.238 -21.865  13.004  1.00  0.00    -0.328 N 
ATOM     17  C   UNL     1     -11.256 -19.635  12.281  1.00  0.00    +0.178 C 
ATOM     18  C   UNL     1     -13.390 -21.110  13.653  1.00  0.00    +0.284 C 
ATOM     19  C   UNL     1     -13.656 -19.762  12.952  1.00  0.00    +0.178 C 
ATOM     20  H   UNL     1     -12.013 -22.643  13.635  1.00  0.00    +0.348 HD
BRANCH  16  21
ATOM     21  C   UNL     1     -12.557 -22.501  11.673  1.00  0.00    +0.299 C 
BRANCH  21  22
ATOM     22  C   UNL     1     -12.700 -24.005  11.716  1.00  0.00    +0.014 A 
ATOM     23  C   UNL     1     -13.858 -24.550  12.307  1.00  0.00    +0.010 A 
ATOM     24  C   UNL     1     -11.715 -24.879  11.190  1.00  0.00    -0.010 A 
ATOM     25  C   UNL     1     -14.038 -25.930  12.391  1.00  0.00    +0.001 A 
ATOM     26  C   UNL     1     -11.921 -26.267  11.290  1.00  0.00    +0.009 A 
ATOM     27  C   UNL     1     -13.069 -26.787  11.885  1.00  0.00    +0.001 A 
BRANCH  24  28
ATOM     28  C   UNL     1     -10.483 -24.396  10.552  1.00  0.00    -0.018 A 
ATOM     29  C   UNL     1     -10.346 -24.426   9.153  1.00  0.00    +0.010 A 
ATOM     30  C   UNL     1      -9.420 -23.893  11.319  1.00  0.00    +0.010 A 
ATOM     31  C   UNL     1      -9.163 -24.000   8.542  1.00  0.00    +0.021 A 
ATOM     32  C   UNL     1      -8.237 -23.466  10.708  1.00  0.00    +0.021 A 
ATOM     33  C   UNL     1      -8.111 -23.528   9.323  1.00  0.00    +0.041 A 
ATOM     34 Cl   UNL     1      -6.650 -23.024   8.573  1.00  0.00    -0.084 Cl
ENDBRANCH  24  28
ENDBRANCH  21  22
ENDBRANCH  16  21
ENDBRANCH   9  14
ENDBRANCH   5   8
ENDBRANCH   1   4
BRANCH   1  35
ATOM     35  C   UNL     1     -10.539 -10.316  11.588  1.00  0.00    +0.094 A 
ATOM     36  C   UNL     1      -9.913  -9.719  10.496  1.00  0.00    +0.025 A 
ATOM     37  C   UNL     1      -9.878 -10.415  12.809  1.00  0.00    +0.110 A 
ATOM     38  C   UNL     1      -8.620  -9.192  10.631  1.00  0.00    +0.034 A 
ATOM     39  C   UNL     1      -8.575  -9.895  12.928  1.00  0.00    +0.293 A 
ATOM     40  C   UNL     1      -7.932  -9.216  11.857  1.00  0.00    +0.113 A 
BRANCH  39  41
ATOM     41  N   UNL     1      -7.901 -10.089  14.218  1.00  0.00    +0.065 N 
ATOM     42  O   UNL     1      -7.223  -9.154  14.672  1.00  0.00    -0.258 OA
ATOM     43  O   UNL     1      -8.046 -11.187  14.777  1.00  0.00    -0.258 OA
ENDBRANCH  39  41
BRANCH  40  44
ATOM     44  N   UNL     1      -6.621  -8.712  11.965  1.00  0.00    -0.376 N 
ATOM     45  H   UNL     1      -6.568  -7.799  11.485  1.00  0.00    +0.161 HD
BRANCH  44  46
ATOM     46  C   UNL     1      -5.439  -9.533  11.632  1.00  0.00    +0.095 C 
BRANCH  46  47
ATOM     47  C   UNL     1      -4.202  -8.756  12.148  1.00  0.00    +0.087 C 
BRANCH  47  48
ATOM     48  C   UNL     1      -3.420  -8.078  11.026  1.00  0.00    +0.263 C 
BRANCH  48  49
ATOM     49  N   UNL     1      -2.085  -8.741  10.747  1.00  0.00    -0.340 N 
ATOM     50  C   UNL     1      -1.869  -9.082   9.298  1.00  0.00    +0.332 C 
ATOM     51  C   UNL     1      -0.899  -8.039  11.347  1.00  0.00    +0.332 C 
ATOM     52  H   UNL     1      -2.132  -9.650  11.227  1.00  0.00    +0.347 HD
ENDBRANCH  48  49
ENDBRANCH  47  48
ENDBRANCH  46  47
BRANCH  46  53
ATOM     53  C   UNL     1      -5.385  -9.896  10.126  1.00  0.00    +0.100 C 
BRANCH  53  54
ATOM     54  S   UNL     1      -5.079 -11.671   9.785  1.00  0.00    -0.124 SA
BRANCH  54  55
ATOM     55  C   UNL     1      -6.542 -12.452  10.432  1.00  0.00    +0.007 A 
ATOM     56  C   UNL     1      -7.645 -12.754   9.627  1.00  0.00    +0.015 A 
ATOM     57  C   UNL     1      -6.548 -12.853  11.774  1.00  0.00    +0.015 A 
ATOM     58  C   UNL     1      -8.752 -13.415  10.166  1.00  0.00    +0.001 A 
ATOM     59  C   UNL     1      -7.651 -13.520  12.310  1.00  0.00    +0.001 A 
ATOM     60  C   UNL     1      -8.757 -13.796  11.508  1.00  0.00    +0.000 A 
ENDBRANCH  54  55
ENDBRANCH  53  54
ENDBRANCH  46  53
ENDBRANCH  44  46
ENDBRANCH  40  44
ENDBRANCH   1  35
TORSDOF 16
ENDMDL
MODEL 5
REMARK VINA RESULT:    -9.518      2.279      4.207
REMARK INTER + INTRA:         -21.545
REMARK INTER:                 -18.880
REMARK INTRA:                  -2.665
REMARK UNBOUND:                -3.124
REMARK SMILES C[NH+](C)CC[C@H](CSc1ccccc1)Nc1ccc(S(=O)(=O)NC(=O)c2ccc(N3CC[NH+](Cc4ccccc4-c4ccc(Cl)cc4)CC3)cc2)cc1[N+](=O)[O-]
REMARK SMILES IDX 20 1 21 2 22 3 23 4 24 5 25 6 26 8 29 9 28 10 50 11 27 12
REMARK SMILES IDX 51 13 30 14 32 15 33 16 31 17 48 18 49 19 34 21 35 22 36 23
REMARK SMILES IDX 40 24 37 25 39 26 38 27 41 28 42 29 47 30 43 31 46 32 44 33
REMARK SMILES IDX 45 34 19 35 18 36 52 37 17 38 53 39 16 40 54 41 55 42 56 43
REMARK SMILES IDX 15 44 6 46 5 47 4 48 2 49 1 50 3 51 7 53 8 54 9 55 10 56
REMARK SMILES IDX 14 57 11 58 13 59 12 60
REMARK H PARENT 23 7 33 20 15 45 2 52
ROOT
ATOM      1  S   UNL     1     -12.365 -11.100  11.253  1.00  0.00    +0.264 S 
ATOM      2  O   UNL     1     -12.941 -10.794   9.964  1.00  0.00    -0.201 OA
ATOM      3  O   UNL     1     -12.977 -10.631  12.478  1.00  0.00    -0.201 OA
ENDROOT
BRANCH   1   4
ATOM      4  N   UNL     1     -12.265 -12.752  11.419  1.00  0.00    -0.245 N 
ATOM      5  C   UNL     1     -13.368 -13.606  11.502  1.00  0.00    +0.264 C 
ATOM      6  O   UNL     1     -14.512 -13.236  11.288  1.00  0.00    -0.268 OA
ATOM      7  H   UNL     1     -11.313 -13.046  11.600  1.00  0.00    +0.183 HD
BRANCH   5   8
ATOM      8  C   UNL     1     -13.076 -15.024  11.864  1.00  0.00    +0.040 A 
ATOM      9  C   UNL     1     -12.694 -17.762  12.574  1.00  0.00    +0.037 A 
ATOM     10  C   UNL     1     -11.764 -16.774  12.931  1.00  0.00    +0.027 A 
ATOM     11  C   UNL     1     -13.803 -17.343  11.820  1.00  0.00    +0.027 A 
ATOM     12  C   UNL     1     -11.950 -15.423  12.589  1.00  0.00    +0.016 A 
ATOM     13  C   UNL     1     -13.996 -15.999  11.472  1.00  0.00    +0.016 A 
BRANCH   9  14
ATOM     14  N   UNL     1     -12.548 -19.121  12.901  1.00  0.00    -0.360 N 
ATOM     15  C   UNL     1     -11.090 -21.148  12.886  1.00  0.00    +0.284 C 
ATOM     16  N   UNL     1     -12.325 -22.036  12.946  1.00  0.00    -0.328 N 
ATOM     17  C   UNL     1     -11.394 -19.779  12.237  1.00  0.00    +0.178 C 
ATOM     18  C   UNL     1     -13.465 -21.309  13.647  1.00  0.00    +0.284 C 
ATOM     19  C   UNL     1     -13.769 -19.951  12.983  1.00  0.00    +0.178 C 
ATOM     20  H   UNL     1     -12.070 -22.824  13.553  1.00  0.00    +0.348 HD
BRANCH  16  21
ATOM     21  C   UNL     1     -12.680 -22.649  11.613  1.00  0.00    +0.299 C 
BRANCH  21  22
ATOM     22  C   UNL     1     -12.777 -24.158  11.623  1.00  0.00    +0.014 A 
ATOM     23  C   UNL     1     -13.930 -24.749  12.179  1.00  0.00    +0.010 A 
ATOM     24  C   UNL     1     -11.754 -24.990  11.103  1.00  0.00    -0.010 A 
ATOM     25  C   UNL     1     -14.069 -26.135  12.232  1.00  0.00    +0.001 A 
ATOM     26  C   UNL     1     -11.920 -26.386  11.171  1.00  0.00    +0.009 A 
ATOM     27  C   UNL     1     -13.064 -26.953  11.731  1.00  0.00    +0.001 A 
BRANCH  24  28
ATOM     28  C   UNL     1     -10.524 -24.457  10.501  1.00  0.00    -0.018 A 
ATOM     29  C   UNL     1     -10.386 -24.389   9.103  1.00  0.00    +0.010 A 
ATOM     30  C   UNL     1      -9.465 -24.002  11.303  1.00  0.00    +0.010 A 
ATOM     31  C   UNL     1      -9.206 -23.916   8.525  1.00  0.00    +0.021 A 
ATOM     32  C   UNL     1      -8.285 -23.528  10.724  1.00  0.00    +0.021 A 
ATOM     33  C   UNL     1      -8.157 -23.493   9.337  1.00  0.00    +0.041 A 
ATOM     34 Cl   UNL     1      -6.698 -22.930   8.626  1.00  0.00    -0.084 Cl
ENDBRANCH  24  28
ENDBRANCH  21  22
ENDBRANCH  16  21
ENDBRANCH   9  14
ENDBRANCH   5   8
ENDBRANCH   1   4
BRANCH   1  35
ATOM     35  C   UNL     1     -10.681 -10.552  11.288  1.00  0.00    +0.094 A 
ATOM     36  C   UNL     1     -10.191  -9.735  10.272  1.00  0.00    +0.025 A 
ATOM     37  C   UNL     1      -9.867 -10.904  12.360  1.00  0.00    +0.110 A 
ATOM     38  C   UNL     1      -8.880  -9.242  10.339  1.00  0.00    +0.034 A 
ATOM     39  C   UNL     1      -8.547 -10.415  12.409  1.00  0.00    +0.293 A 
ATOM     40  C   UNL     1      -8.036  -9.522  11.429  1.00  0.00    +0.113 A 
BRANCH  39  41
ATOM     41  N   UNL     1      -7.713 -10.874  13.527  1.00  0.00    +0.065 N 
ATOM     42  O   UNL     1      -6.961 -10.052  14.073  1.00  0.00    -0.258 OA
ATOM     43  O   UNL     1      -7.808 -12.066  13.856  1.00  0.00    -0.258 OA
ENDBRANCH  39  41
BRANCH  40  44
ATOM     44  N   UNL     1      -6.711  -9.046  11.463  1.00  0.00    -0.376 N 
ATOM     45  H   UNL     1      -6.581  -8.464  12.307  1.00  0.00    +0.161 HD
BRANCH  44  46
ATOM     46  C   UNL     1      -6.086  -8.394  10.294  1.00  0.00    +0.095 C 
BRANCH  46  47
ATOM     47  C   UNL     1      -5.768  -9.520   9.277  1.00  0.00    +0.087 C 
BRANCH  47  48
ATOM     48  C   UNL     1      -4.699 -10.485   9.780  1.00  0.00    +0.263 C 
BRANCH  48  49
ATOM     49  N   UNL     1      -5.190 -11.917   9.878  1.00  0.00    -0.340 N 
ATOM     50  C   UNL     1      -5.408 -12.388  11.290  1.00  0.00    +0.332 C 
ATOM     51  C   UNL     1      -6.355 -12.244   8.986  1.00  0.00    +0.332 C 
ATOM     52  H   UNL     1      -4.411 -12.491   9.525  1.00  0.00    +0.347 HD
ENDBRANCH  48  49
ENDBRANCH  47  48
ENDBRANCH  46  47
BRANCH  46  53
ATOM     53  C   UNL     1      -4.863  -7.528  10.691  1.00  0.00    +0.100 C 
BRANCH  53  54
ATOM     54  S   UNL     1      -3.872  -6.919   9.274  1.00  0.00    -0.124 SA
BRANCH  54  55
ATOM     55  C   UNL     1      -2.309  -7.737   9.509  1.00  0.00    +0.007 A 
ATOM     56  C   UNL     1      -1.724  -7.882  10.771  1.00  0.00    +0.015 A 
ATOM     57  C   UNL     1      -1.690  -8.327   8.400  1.00  0.00    +0.015 A 
ATOM     58  C   UNL     1      -0.521  -8.577  10.916  1.00  0.00    +0.001 A 
ATOM     59  C   UNL     1      -0.491  -9.028   8.546  1.00  0.00    +0.001 A 
ATOM     60  C   UNL     1       0.097  -9.148   9.804  1.00  0.00    +0.000 A 
ENDBRANCH  54  55
ENDBRANCH  53  54
ENDBRANCH  46  53
ENDBRANCH  44  46
ENDBRANCH  40  44
ENDBRANCH   1  35
TORSDOF 16
ENDMDL
MODEL 6
REMARK VINA RESULT:    -9.401      4.246     13.219
REMARK INTER + INTRA:         -21.319
REMARK INTER:                 -19.032
REMARK INTRA:                  -2.287
REMARK UNBOUND:                -3.124
REMARK SMILES C[NH+](C)CC[C@H](CSc1ccccc1)Nc1ccc(S(=O)(=O)NC(=O)c2ccc(N3CC[NH+](Cc4ccccc4-c4ccc(Cl)cc4)CC3)cc2)cc1[N+](=O)[O-]
REMARK SMILES IDX 20 1 21 2 22 3 23 4 24 5 25 6 26 8 29 9 28 10 50 11 27 12
REMARK SMILES IDX 51 13 30 14 32 15 33 16 31 17 48 18 49 19 34 21 35 22 36 23
REMARK SMILES IDX 40 24 37 25 39 26 38 27 41 28 42 29 47 30 43 31 46 32 44 33
REMARK SMILES IDX 45 34 19 35 18 36 52 37 17 38 53 39 16 40 54 41 55 42 56 43
REMARK SMILES IDX 15 44 6 46 5 47 4 48 2 49 1 50 3 51 7 53 8 54 9 55 10 56
REMARK SMILES IDX 14 57 11 58 13 59 12 60
REMARK H PARENT 23 7 33 20 15 45 2 52
ROOT
ATOM      1  S   UNL     1     -15.331 -16.515  12.888  1.00  0.00    +0.264 S 
ATOM      2  O   UNL     1     -15.879 -16.057  14.144  1.00  0.00    -0.201 OA
ATOM      3  O   UNL     1     -15.961 -16.180  11.629  1.00  0.00    -0.201 OA
ENDROOT
BRANCH   1   4
ATOM      4  N   UNL     1     -13.766 -15.968  12.753  1.00  0.00    -0.245 N 
ATOM      5  C   UNL     1     -13.413 -14.645  12.471  1.00  0.00    +0.264 C 
ATOM      6  O   UNL     1     -14.220 -13.730  12.466  1.00  0.00    -0.268 OA
ATOM      7  H   UNL     1     -13.106 -16.736  12.754  1.00  0.00    +0.183 HD
BRANCH   5   8
ATOM      8  C   UNL     1     -11.971 -14.398  12.177  1.00  0.00    +0.040 A 
ATOM      9  C   UNL     1      -9.235 -13.756  11.676  1.00  0.00    +0.037 A 
ATOM     10  C   UNL     1      -9.938 -14.662  10.866  1.00  0.00    +0.027 A 
ATOM     11  C   UNL     1      -9.934 -13.210  12.765  1.00  0.00    +0.027 A 
ATOM     12  C   UNL     1     -11.287 -14.977  11.105  1.00  0.00    +0.016 A 
ATOM     13  C   UNL     1     -11.277 -13.520  13.014  1.00  0.00    +0.016 A 
BRANCH   9  14
ATOM     14  N   UNL     1      -7.889 -13.412  11.468  1.00  0.00    -0.360 N 
ATOM     15  C   UNL     1      -5.684 -12.819  12.478  1.00  0.00    +0.284 C 
ATOM     16  N   UNL     1      -5.289 -12.103  11.194  1.00  0.00    -0.328 N 
ATOM     17  C   UNL     1      -7.216 -12.857  12.670  1.00  0.00    +0.178 C 
ATOM     18  C   UNL     1      -6.002 -12.726  10.001  1.00  0.00    +0.284 C 
ATOM     19  C   UNL     1      -7.531 -12.746  10.197  1.00  0.00    +0.178 C 
ATOM     20  H   UNL     1      -4.289 -12.297  11.065  1.00  0.00    +0.348 HD
BRANCH  16  21
ATOM     21  C   UNL     1      -5.401 -10.600  11.295  1.00  0.00    +0.299 C 
BRANCH  21  22
ATOM     22  C   UNL     1      -4.798  -9.848  10.130  1.00  0.00    +0.014 A 
ATOM     23  C   UNL     1      -3.393  -9.769  10.042  1.00  0.00    +0.010 A 
ATOM     24  C   UNL     1      -5.591  -9.222   9.136  1.00  0.00    -0.010 A 
ATOM     25  C   UNL     1      -2.780  -9.074   9.000  1.00  0.00    +0.001 A 
ATOM     26  C   UNL     1      -4.946  -8.526   8.097  1.00  0.00    +0.009 A 
ATOM     27  C   UNL     1      -3.556  -8.452   8.030  1.00  0.00    +0.001 A 
BRANCH  24  28
ATOM     28  C   UNL     1      -7.060  -9.262   9.150  1.00  0.00    -0.018 A 
ATOM     29  C   UNL     1      -7.773  -9.652   8.002  1.00  0.00    +0.010 A 
ATOM     30  C   UNL     1      -7.783  -8.916  10.302  1.00  0.00    +0.010 A 
ATOM     31  C   UNL     1      -9.170  -9.658   7.996  1.00  0.00    +0.021 A 
ATOM     32  C   UNL     1      -9.181  -8.923  10.298  1.00  0.00    +0.021 A 
ATOM     33  C   UNL     1      -9.868  -9.288   9.143  1.00  0.00    +0.041 A 
ATOM     34 Cl   UNL     1     -11.586  -9.276   9.130  1.00  0.00    -0.084 Cl
ENDBRANCH  24  28
ENDBRANCH  21  22
ENDBRANCH  16  21
ENDBRANCH   9  14
ENDBRANCH   5   8
ENDBRANCH   1   4
BRANCH   1  35
ATOM     35  C   UNL     1     -15.178 -18.280  12.923  1.00  0.00    +0.094 A 
ATOM     36  C   UNL     1     -13.988 -18.869  13.344  1.00  0.00    +0.025 A 
ATOM     37  C   UNL     1     -16.268 -19.070  12.573  1.00  0.00    +0.110 A 
ATOM     38  C   UNL     1     -13.892 -20.264  13.441  1.00  0.00    +0.034 A 
ATOM     39  C   UNL     1     -16.155 -20.471  12.661  1.00  0.00    +0.293 A 
ATOM     40  C   UNL     1     -14.982 -21.105  13.153  1.00  0.00    +0.113 A 
BRANCH  39  41
ATOM     41  N   UNL     1     -17.313 -21.257  12.214  1.00  0.00    +0.065 N 
ATOM     42  O   UNL     1     -18.315 -21.290  12.945  1.00  0.00    -0.258 OA
ATOM     43  O   UNL     1     -17.215 -21.848  11.128  1.00  0.00    -0.258 OA
ENDBRANCH  39  41
BRANCH  40  44
ATOM     44  N   UNL     1     -14.858 -22.506  13.224  1.00  0.00    -0.376 N 
ATOM     45  H   UNL     1     -14.335 -22.758  14.080  1.00  0.00    +0.161 HD
BRANCH  44  46
ATOM     46  C   UNL     1     -14.377 -23.306  12.079  1.00  0.00    +0.095 C 
BRANCH  46  47
ATOM     47  C   UNL     1     -13.478 -24.423  12.666  1.00  0.00    +0.087 C 
BRANCH  47  48
ATOM     48  C   UNL     1     -13.795 -25.800  12.093  1.00  0.00    +0.263 C 
BRANCH  48  49
ATOM     49  N   UNL     1     -12.557 -26.574  11.683  1.00  0.00    -0.340 N 
ATOM     50  C   UNL     1     -11.275 -25.993  12.214  1.00  0.00    +0.332 C 
ATOM     51  C   UNL     1     -12.642 -28.058  11.906  1.00  0.00    +0.332 C 
ATOM     52  H   UNL     1     -12.496 -26.458  10.661  1.00  0.00    +0.347 HD
ENDBRANCH  48  49
ENDBRANCH  47  48
ENDBRANCH  46  47
BRANCH  46  53
ATOM     53  C   UNL     1     -13.688 -22.430  11.002  1.00  0.00    +0.100 C 
BRANCH  53  54
ATOM     54  S   UNL     1     -13.575 -23.212   9.347  1.00  0.00    -0.124 SA
BRANCH  54  55
ATOM     55  C   UNL     1     -11.823 -23.209   9.032  1.00  0.00    +0.007 A 
ATOM     56  C   UNL     1     -11.081 -22.027   8.951  1.00  0.00    +0.015 A 
ATOM     57  C   UNL     1     -11.157 -24.438   8.948  1.00  0.00    +0.015 A 
ATOM     58  C   UNL     1      -9.698 -22.073   8.754  1.00  0.00    +0.001 A 
ATOM     59  C   UNL     1      -9.775 -24.484   8.758  1.00  0.00    +0.001 A 
ATOM     60  C   UNL     1      -9.045 -23.301   8.655  1.00  0.00    +0.000 A 
ENDBRANCH  54  55
ENDBRANCH  53  54
ENDBRANCH  46  53
ENDBRANCH  44  46
ENDBRANCH  40  44
ENDBRANCH   1  35
TORSDOF 16
ENDMDL
MODEL 7
REMARK VINA RESULT:    -9.377      2.669      5.018
REMARK INTER + INTRA:         -21.273
REMARK INTER:                 -18.660
REMARK INTRA:                  -2.613
REMARK UNBOUND:                -3.124
REMARK SMILES C[NH+](C)CC[C@H](CSc1ccccc1)Nc1ccc(S(=O)(=O)NC(=O)c2ccc(N3CC[NH+](Cc4ccccc4-c4ccc(Cl)cc4)CC3)cc2)cc1[N+](=O)[O-]
REMARK SMILES IDX 20 1 21 2 22 3 23 4 24 5 25 6 26 8 29 9 28 10 50 11 27 12
REMARK SMILES IDX 51 13 30 14 32 15 33 16 31 17 48 18 49 19 34 21 35 22 36 23
REMARK SMILES IDX 40 24 37 25 39 26 38 27 41 28 42 29 47 30 43 31 46 32 44 33
REMARK SMILES IDX 45 34 19 35 18 36 52 37 17 38 53 39 16 40 54 41 55 42 56 43
REMARK SMILES IDX 15 44 6 46 5 47 4 48 2 49 1 50 3 51 7 53 8 54 9 55 10 56
REMARK SMILES IDX 14 57 11 58 13 59 12 60
REMARK H PARENT 23 7 33 20 15 45 2 52
ROOT
ATOM      1  S   UNL     1     -11.062 -11.676  13.796  1.00  0.00    +0.264 S 
ATOM      2  O   UNL     1     -12.181 -10.918  13.285  1.00  0.00    -0.201 OA
ATOM      3  O   UNL     1     -10.739 -11.674  15.207  1.00  0.00    -0.201 OA
ENDROOT
BRANCH   1   4
ATOM      4  N   UNL     1     -11.270 -13.277  13.398  1.00  0.00    -0.245 N 
ATOM      5  C   UNL     1     -11.912 -13.726  12.240  1.00  0.00    +0.264 C 
ATOM      6  O   UNL     1     -12.228 -12.982  11.325  1.00  0.00    -0.268 OA
ATOM      7  H   UNL     1     -11.008 -13.885  14.164  1.00  0.00    +0.183 HD
BRANCH   5   8
ATOM      8  C   UNL     1     -12.188 -15.191  12.168  1.00  0.00    +0.040 A 
ATOM      9  C   UNL     1     -12.541 -18.021  12.061  1.00  0.00    +0.037 A 
ATOM     10  C   UNL     1     -13.314 -17.154  11.273  1.00  0.00    +0.027 A 
ATOM     11  C   UNL     1     -11.612 -17.426  12.929  1.00  0.00    +0.027 A 
ATOM     12  C   UNL     1     -13.140 -15.760  11.317  1.00  0.00    +0.016 A 
ATOM     13  C   UNL     1     -11.433 -16.037  12.983  1.00  0.00    +0.016 A 
BRANCH   9  14
ATOM     14  N   UNL     1     -12.681 -19.420  12.042  1.00  0.00    -0.360 N 
ATOM     15  C   UNL     1     -11.564 -21.651  12.102  1.00  0.00    +0.284 C 
ATOM     16  N   UNL     1     -12.762 -22.270  11.396  1.00  0.00    -0.328 N 
ATOM     17  C   UNL     1     -11.415 -20.148  11.777  1.00  0.00    +0.178 C 
ATOM     18  C   UNL     1     -14.027 -21.485  11.717  1.00  0.00    +0.284 C 
ATOM     19  C   UNL     1     -13.872 -19.990  11.376  1.00  0.00    +0.178 C 
ATOM     20  H   UNL     1     -12.884 -23.197  11.819  1.00  0.00    +0.348 HD
BRANCH  16  21
ATOM     21  C   UNL     1     -12.520 -22.523   9.927  1.00  0.00    +0.299 C 
BRANCH  21  22
ATOM     22  C   UNL     1     -11.127 -23.007   9.597  1.00  0.00    +0.014 A 
ATOM     23  C   UNL     1     -10.271 -22.144   8.882  1.00  0.00    +0.010 A 
ATOM     24  C   UNL     1     -10.657 -24.291   9.974  1.00  0.00    -0.010 A 
ATOM     25  C   UNL     1      -8.981 -22.542   8.534  1.00  0.00    +0.001 A 
ATOM     26  C   UNL     1      -9.352 -24.667   9.608  1.00  0.00    +0.009 A 
ATOM     27  C   UNL     1      -8.523 -23.803   8.894  1.00  0.00    +0.001 A 
BRANCH  24  28
ATOM     28  C   UNL     1     -11.480 -25.249  10.725  1.00  0.00    -0.018 A 
ATOM     29  C   UNL     1     -12.497 -25.975  10.079  1.00  0.00    +0.010 A 
ATOM     30  C   UNL     1     -11.271 -25.464  12.096  1.00  0.00    +0.010 A 
ATOM     31  C   UNL     1     -13.307 -26.861  10.794  1.00  0.00    +0.021 A 
ATOM     32  C   UNL     1     -12.080 -26.351  12.812  1.00  0.00    +0.021 A 
ATOM     33  C   UNL     1     -13.099 -27.041  12.159  1.00  0.00    +0.041 A 
ATOM     34 Cl   UNL     1     -14.107 -28.115  13.043  1.00  0.00    -0.084 Cl
ENDBRANCH  24  28
ENDBRANCH  21  22
ENDBRANCH  16  21
ENDBRANCH   9  14
ENDBRANCH   5   8
ENDBRANCH   1   4
BRANCH   1  35
ATOM     35  C   UNL     1      -9.588 -11.198  12.939  1.00  0.00    +0.094 A 
ATOM     36  C   UNL     1      -9.444  -9.894  12.471  1.00  0.00    +0.025 A 
ATOM     37  C   UNL     1      -8.558 -12.119  12.779  1.00  0.00    +0.110 A 
ATOM     38  C   UNL     1      -8.247  -9.497  11.858  1.00  0.00    +0.034 A 
ATOM     39  C   UNL     1      -7.366 -11.713  12.148  1.00  0.00    +0.293 A 
ATOM     40  C   UNL     1      -7.155 -10.373  11.723  1.00  0.00    +0.113 A 
BRANCH  39  41
ATOM     41  N   UNL     1      -6.340 -12.745  11.946  1.00  0.00    +0.065 N 
ATOM     42  O   UNL     1      -5.798 -12.820  10.832  1.00  0.00    -0.258 OA
ATOM     43  O   UNL     1      -6.083 -13.487  12.905  1.00  0.00    -0.258 OA
ENDBRANCH  39  41
BRANCH  40  44
ATOM     44  N   UNL     1      -5.973  -9.967  11.075  1.00  0.00    -0.376 N 
ATOM     45  H   UNL     1      -5.316  -9.585  11.775  1.00  0.00    +0.161 HD
BRANCH  44  46
ATOM     46  C   UNL     1      -5.997  -9.105   9.875  1.00  0.00    +0.095 C 
BRANCH  46  47
ATOM     47  C   UNL     1      -6.001 -10.053   8.649  1.00  0.00    +0.087 C 
BRANCH  47  48
ATOM     48  C   UNL     1      -7.085  -9.704   7.635  1.00  0.00    +0.263 C 
BRANCH  48  49
ATOM     49  N   UNL     1      -8.409 -10.387   7.921  1.00  0.00    -0.340 N 
ATOM     50  C   UNL     1      -8.272 -11.693   8.653  1.00  0.00    +0.332 C 
ATOM     51  C   UNL     1      -9.453  -9.498   8.538  1.00  0.00    +0.332 C 
ATOM     52  H   UNL     1      -8.784 -10.641   6.996  1.00  0.00    +0.347 HD
ENDBRANCH  48  49
ENDBRANCH  47  48
ENDBRANCH  46  47
BRANCH  46  53
ATOM     53  C   UNL     1      -4.847  -8.067   9.877  1.00  0.00    +0.100 C 
BRANCH  53  54
ATOM     54  S   UNL     1      -3.786  -8.113  11.372  1.00  0.00    -0.124 SA
BRANCH  54  55
ATOM     55  C   UNL     1      -2.161  -8.367  10.692  1.00  0.00    +0.007 A 
ATOM     56  C   UNL     1      -1.002  -7.943  11.350  1.00  0.00    +0.015 A 
ATOM     57  C   UNL     1      -2.041  -9.093   9.501  1.00  0.00    +0.015 A 
ATOM     58  C   UNL     1       0.257  -8.209  10.804  1.00  0.00    +0.001 A 
ATOM     59  C   UNL     1      -0.783  -9.366   8.960  1.00  0.00    +0.001 A 
ATOM     60  C   UNL     1       0.366  -8.918   9.609  1.00  0.00    +0.000 A 
ENDBRANCH  54  55
ENDBRANCH  53  54
ENDBRANCH  46  53
ENDBRANCH  44  46
ENDBRANCH  40  44
ENDBRANCH   1  35
TORSDOF 16
ENDMDL
MODEL 8
REMARK VINA RESULT:    -8.749      2.348      3.381
REMARK INTER + INTRA:         -20.057
REMARK INTER:                 -16.880
REMARK INTRA:                  -3.177
REMARK UNBOUND:                -3.124
REMARK SMILES C[NH+](C)CC[C@H](CSc1ccccc1)Nc1ccc(S(=O)(=O)NC(=O)c2ccc(N3CC[NH+](Cc4ccccc4-c4ccc(Cl)cc4)CC3)cc2)cc1[N+](=O)[O-]
REMARK SMILES IDX 20 1 21 2 22 3 23 4 24 5 25 6 26 8 29 9 28 10 50 11 27 12
REMARK SMILES IDX 51 13 30 14 32 15 33 16 31 17 48 18 49 19 34 21 35 22 36 23
REMARK SMILES IDX 40 24 37 25 39 26 38 27 41 28 42 29 47 30 43 31 46 32 44 33
REMARK SMILES IDX 45 34 19 35 18 36 52 37 17 38 53 39 16 40 54 41 55 42 56 43
REMARK SMILES IDX 15 44 6 46 5 47 4 48 2 49 1 50 3 51 7 53 8 54 9 55 10 56
REMARK SMILES IDX 14 57 11 58 13 59 12 60
REMARK H PARENT 23 7 33 20 15 45 2 52
ROOT
ATOM      1  S   UNL     1     -14.151 -11.673  13.088  1.00  0.00    +0.264 S 
ATOM      2  O   UNL     1     -15.310 -11.493  12.246  1.00  0.00    -0.201 OA
ATOM      3  O   UNL     1     -14.195 -11.366  14.501  1.00  0.00    -0.201 OA
ENDROOT
BRANCH   1   4
ATOM      4  N   UNL     1     -13.666 -13.263  13.002  1.00  0.00    -0.245 N 
ATOM      5  C   UNL     1     -13.759 -14.055  11.854  1.00  0.00    +0.264 C 
ATOM      6  O   UNL     1     -14.046 -13.605  10.757  1.00  0.00    -0.268 OA
ATOM      7  H   UNL     1     -13.435 -13.627  13.918  1.00  0.00    +0.183 HD
BRANCH   5   8
ATOM      8  C   UNL     1     -13.476 -15.510  12.036  1.00  0.00    +0.040 A 
ATOM      9  C   UNL     1     -12.785 -18.244  12.476  1.00  0.00    +0.037 A 
ATOM     10  C   UNL     1     -13.431 -17.829  11.301  1.00  0.00    +0.027 A 
ATOM     11  C   UNL     1     -12.529 -17.254  13.439  1.00  0.00    +0.027 A 
ATOM     12  C   UNL     1     -13.768 -16.483  11.076  1.00  0.00    +0.016 A 
ATOM     13  C   UNL     1     -12.863 -15.910  13.226  1.00  0.00    +0.016 A 
BRANCH   9  14
ATOM     14  N   UNL     1     -12.428 -19.578  12.736  1.00  0.00    -0.360 N 
ATOM     15  C   UNL     1     -11.003 -21.536  12.128  1.00  0.00    +0.284 C 
ATOM     16  N   UNL     1     -12.030 -22.474  12.746  1.00  0.00    -0.328 N 
ATOM     17  C   UNL     1     -11.645 -20.215  11.648  1.00  0.00    +0.178 C 
ATOM     18  C   UNL     1     -12.789 -21.766  13.861  1.00  0.00    +0.284 C 
ATOM     19  C   UNL     1     -13.436 -20.456  13.367  1.00  0.00    +0.178 C 
ATOM     20  H   UNL     1     -11.488 -23.220  13.198  1.00  0.00    +0.348 HD
BRANCH  16  21
ATOM     21  C   UNL     1     -12.896 -23.166  11.721  1.00  0.00    +0.299 C 
BRANCH  21  22
ATOM     22  C   UNL     1     -12.922 -24.673  11.837  1.00  0.00    +0.014 A 
ATOM     23  C   UNL     1     -14.011 -25.273  12.501  1.00  0.00    +0.010 A 
ATOM     24  C   UNL     1     -11.894 -25.495  11.310  1.00  0.00    -0.010 A 
ATOM     25  C   UNL     1     -14.082 -26.657  12.655  1.00  0.00    +0.001 A 
ATOM     26  C   UNL     1     -11.990 -26.889  11.481  1.00  0.00    +0.009 A 
ATOM     27  C   UNL     1     -13.071 -27.463  12.147  1.00  0.00    +0.001 A 
BRANCH  24  28
ATOM     28  C   UNL     1     -10.728 -24.953  10.599  1.00  0.00    -0.018 A 
ATOM     29  C   UNL     1      -9.570 -24.584  11.307  1.00  0.00    +0.010 A 
ATOM     30  C   UNL     1     -10.741 -24.794   9.204  1.00  0.00    +0.010 A 
ATOM     31  C   UNL     1      -8.471 -24.035  10.641  1.00  0.00    +0.021 A 
ATOM     32  C   UNL     1      -9.641 -24.245   8.538  1.00  0.00    +0.021 A 
ATOM     33  C   UNL     1      -8.514 -23.862   9.260  1.00  0.00    +0.041 A 
ATOM     34 Cl   UNL     1      -7.171 -23.168   8.444  1.00  0.00    -0.084 Cl
ENDBRANCH  24  28
ENDBRANCH  21  22
ENDBRANCH  16  21
ENDBRANCH   9  14
ENDBRANCH   5   8
ENDBRANCH   1   4
BRANCH   1  35
ATOM     35  C   UNL     1     -12.788 -10.762  12.415  1.00  0.00    +0.094 A 
ATOM     36  C   UNL     1     -11.544 -11.371  12.273  1.00  0.00    +0.025 A 
ATOM     37  C   UNL     1     -12.983  -9.453  11.988  1.00  0.00    +0.110 A 
ATOM     38  C   UNL     1     -10.486 -10.673  11.673  1.00  0.00    +0.034 A 
ATOM     39  C   UNL     1     -11.909  -8.756  11.400  1.00  0.00    +0.293 A 
ATOM     40  C   UNL     1     -10.646  -9.368  11.173  1.00  0.00    +0.113 A 
BRANCH  39  41
ATOM     41  N   UNL     1     -12.153  -7.356  11.031  1.00  0.00    +0.065 N 
ATOM     42  O   UNL     1     -11.372  -6.492  11.461  1.00  0.00    -0.258 OA
ATOM     43  O   UNL     1     -13.135  -7.119  10.312  1.00  0.00    -0.258 OA
ENDBRANCH  39  41
BRANCH  40  44
ATOM     44  N   UNL     1      -9.564  -8.670  10.604  1.00  0.00    -0.376 N 
ATOM     45  H   UNL     1      -9.796  -8.422   9.627  1.00  0.00    +0.161 HD
BRANCH  44  46
ATOM     46  C   UNL     1      -8.179  -9.176  10.686  1.00  0.00    +0.095 C 
BRANCH  46  47
ATOM     47  C   UNL     1      -7.443  -8.288  11.721  1.00  0.00    +0.087 C 
BRANCH  47  48
ATOM     48  C   UNL     1      -6.375  -7.403  11.087  1.00  0.00    +0.263 C 
BRANCH  48  49
ATOM     49  N   UNL     1      -5.013  -7.556  11.738  1.00  0.00    -0.340 N 
ATOM     50  C   UNL     1      -4.787  -8.906  12.361  1.00  0.00    +0.332 C 
ATOM     51  C   UNL     1      -3.856  -7.127  10.879  1.00  0.00    +0.332 C 
ATOM     52  H   UNL     1      -5.020  -6.897  12.530  1.00  0.00    +0.347 HD
ENDBRANCH  48  49
ENDBRANCH  47  48
ENDBRANCH  46  47
BRANCH  46  53
ATOM     53  C   UNL     1      -7.495  -9.238   9.296  1.00  0.00    +0.100 C 
BRANCH  53  54
ATOM     54  S   UNL     1      -6.207 -10.534   9.141  1.00  0.00    -0.124 SA
BRANCH  54  55
ATOM     55  C   UNL     1      -6.880 -11.871  10.105  1.00  0.00    +0.007 A 
ATOM     56  C   UNL     1      -6.376 -12.212  11.364  1.00  0.00    +0.015 A 
ATOM     57  C   UNL     1      -8.006 -12.546   9.617  1.00  0.00    +0.015 A 
ATOM     58  C   UNL     1      -6.968 -13.235  12.108  1.00  0.00    +0.001 A 
ATOM     59  C   UNL     1      -8.602 -13.563  10.364  1.00  0.00    +0.001 A 
ATOM     60  C   UNL     1      -8.079 -13.913  11.608  1.00  0.00    +0.000 A 
ENDBRANCH  54  55
ENDBRANCH  53  54
ENDBRANCH  46  53
ENDBRANCH  44  46
ENDBRANCH  40  44
ENDBRANCH   1  35
TORSDOF 16
ENDMDL
MODEL 9
REMARK VINA RESULT:    -8.669      3.338     12.400
REMARK INTER + INTRA:         -19.903
REMARK INTER:                 -17.319
REMARK INTRA:                  -2.584
REMARK UNBOUND:                -3.124
REMARK SMILES C[NH+](C)CC[C@H](CSc1ccccc1)Nc1ccc(S(=O)(=O)NC(=O)c2ccc(N3CC[NH+](Cc4ccccc4-c4ccc(Cl)cc4)CC3)cc2)cc1[N+](=O)[O-]
REMARK SMILES IDX 20 1 21 2 22 3 23 4 24 5 25 6 26 8 29 9 28 10 50 11 27 12
REMARK SMILES IDX 51 13 30 14 32 15 33 16 31 17 48 18 49 19 34 21 35 22 36 23
REMARK SMILES IDX 40 24 37 25 39 26 38 27 41 28 42 29 47 30 43 31 46 32 44 33
REMARK SMILES IDX 45 34 19 35 18 36 52 37 17 38 53 39 16 40 54 41 55 42 56 43
REMARK SMILES IDX 15 44 6 46 5 47 4 48 2 49 1 50 3 51 7 53 8 54 9 55 10 56
REMARK SMILES IDX 14 57 11 58 13 59 12 60
REMARK H PARENT 23 7 33 20 15 45 2 52
ROOT
ATOM      1  S   UNL     1     -15.559 -14.308  12.492  1.00  0.00    +0.264 S 
ATOM      2  O   UNL     1     -16.444 -14.082  13.610  1.00  0.00    -0.201 OA
ATOM      3  O   UNL     1     -15.998 -14.088  11.131  1.00  0.00    -0.201 OA
ENDROOT
BRANCH   1   4
ATOM      4  N   UNL     1     -14.208 -13.355  12.675  1.00  0.00    -0.245 N 
ATOM      5  C   UNL     1     -14.177 -11.977  12.448  1.00  0.00    +0.264 C 
ATOM      6  O   UNL     1     -15.184 -11.312  12.261  1.00  0.00    -0.268 OA
ATOM      7  H   UNL     1     -13.379 -13.917  12.826  1.00  0.00    +0.183 HD
BRANCH   5   8
ATOM      8  C   UNL     1     -12.828 -11.339  12.457  1.00  0.00    +0.040 A 
ATOM      9  C   UNL     1     -10.329  -9.959  12.477  1.00  0.00    +0.037 A 
ATOM     10  C   UNL     1     -10.493 -11.172  11.791  1.00  0.00    +0.027 A 
ATOM     11  C   UNL     1     -11.445  -9.477  13.182  1.00  0.00    +0.027 A 
ATOM     12  C   UNL     1     -11.723 -11.853  11.773  1.00  0.00    +0.016 A 
ATOM     13  C   UNL     1     -12.674 -10.149  13.173  1.00  0.00    +0.016 A 
BRANCH   9  14
ATOM     14  N   UNL     1      -9.119  -9.246  12.516  1.00  0.00    -0.360 N 
ATOM     15  C   UNL     1      -7.963  -7.042  12.319  1.00  0.00    +0.284 C 
ATOM     16  N   UNL     1      -6.668  -7.754  11.956  1.00  0.00    -0.328 N 
ATOM     17  C   UNL     1      -9.207  -7.878  11.945  1.00  0.00    +0.178 C 
ATOM     18  C   UNL     1      -6.635  -9.143  12.581  1.00  0.00    +0.284 C 
ATOM     19  C   UNL     1      -7.874  -9.973  12.189  1.00  0.00    +0.178 C 
ATOM     20  H   UNL     1      -5.920  -7.217  12.409  1.00  0.00    +0.348 HD
BRANCH  16  21
ATOM     21  C   UNL     1      -6.361  -7.709  10.478  1.00  0.00    +0.299 C 
BRANCH  21  22
ATOM     22  C   UNL     1      -4.922  -8.012  10.128  1.00  0.00    +0.014 A 
ATOM     23  C   UNL     1      -3.980  -6.966  10.208  1.00  0.00    +0.010 A 
ATOM     24  C   UNL     1      -4.492  -9.301   9.722  1.00  0.00    -0.010 A 
ATOM     25  C   UNL     1      -2.642  -7.181   9.882  1.00  0.00    +0.001 A 
ATOM     26  C   UNL     1      -3.137  -9.489   9.396  1.00  0.00    +0.009 A 
ATOM     27  C   UNL     1      -2.221  -8.441   9.474  1.00  0.00    +0.001 A 
BRANCH  24  28
ATOM     28  C   UNL     1      -5.406 -10.447   9.617  1.00  0.00    -0.018 A 
ATOM     29  C   UNL     1      -5.177 -11.611  10.372  1.00  0.00    +0.010 A 
ATOM     30  C   UNL     1      -6.525 -10.406   8.770  1.00  0.00    +0.010 A 
ATOM     31  C   UNL     1      -6.022 -12.718  10.252  1.00  0.00    +0.021 A 
ATOM     32  C   UNL     1      -7.370 -11.512   8.650  1.00  0.00    +0.021 A 
ATOM     33  C   UNL     1      -7.112 -12.666   9.386  1.00  0.00    +0.041 A 
ATOM     34 Cl   UNL     1      -8.139 -14.033   9.223  1.00  0.00    -0.084 Cl
ENDBRANCH  24  28
ENDBRANCH  21  22
ENDBRANCH  16  21
ENDBRANCH   9  14
ENDBRANCH   5   8
ENDBRANCH   1   4
BRANCH   1  35
ATOM     35  C   UNL     1     -14.939 -15.967  12.560  1.00  0.00    +0.094 A 
ATOM     36  C   UNL     1     -15.810 -17.044  12.418  1.00  0.00    +0.025 A 
ATOM     37  C   UNL     1     -13.573 -16.183  12.709  1.00  0.00    +0.110 A 
ATOM     38  C   UNL     1     -15.309 -18.353  12.399  1.00  0.00    +0.034 A 
ATOM     39  C   UNL     1     -13.083 -17.503  12.703  1.00  0.00    +0.293 A 
ATOM     40  C   UNL     1     -13.931 -18.623  12.489  1.00  0.00    +0.113 A 
BRANCH  39  41
ATOM     41  N   UNL     1     -11.642 -17.675  12.932  1.00  0.00    +0.065 N 
ATOM     42  O   UNL     1     -11.247 -18.757  13.394  1.00  0.00    -0.258 OA
ATOM     43  O   UNL     1     -10.904 -16.718  12.654  1.00  0.00    -0.258 OA
ENDBRANCH  39  41
BRANCH  40  44
ATOM     44  N   UNL     1     -13.449 -19.946  12.501  1.00  0.00    -0.376 N 
ATOM     45  H   UNL     1     -12.454 -19.942  12.781  1.00  0.00    +0.161 HD
BRANCH  44  46
ATOM     46  C   UNL     1     -13.653 -20.861  11.359  1.00  0.00    +0.095 C 
BRANCH  46  47
ATOM     47  C   UNL     1     -14.532 -22.027  11.879  1.00  0.00    +0.087 C 
BRANCH  47  48
ATOM     48  C   UNL     1     -14.810 -23.079  10.810  1.00  0.00    +0.263 C 
BRANCH  48  49
ATOM     49  N   UNL     1     -14.466 -24.487  11.257  1.00  0.00    -0.340 N 
ATOM     50  C   UNL     1     -13.490 -25.189  10.352  1.00  0.00    +0.332 C 
ATOM     51  C   UNL     1     -14.083 -24.609  12.706  1.00  0.00    +0.332 C 
ATOM     52  H   UNL     1     -15.342 -25.019  11.164  1.00  0.00    +0.347 HD
ENDBRANCH  48  49
ENDBRANCH  47  48
ENDBRANCH  46  47
BRANCH  46  53
ATOM     53  C   UNL     1     -12.313 -21.307  10.720  1.00  0.00    +0.100 C 
BRANCH  53  54
ATOM     54  S   UNL     1     -11.185 -22.192  11.863  1.00  0.00    -0.124 SA
BRANCH  54  55
ATOM     55  C   UNL     1      -9.964 -22.871  10.760  1.00  0.00    +0.007 A 
ATOM     56  C   UNL     1     -10.293 -23.364   9.493  1.00  0.00    +0.015 A 
ATOM     57  C   UNL     1      -8.619 -22.829  11.146  1.00  0.00    +0.015 A 
ATOM     58  C   UNL     1      -9.295 -23.840   8.640  1.00  0.00    +0.001 A 
ATOM     59  C   UNL     1      -7.620 -23.298  10.290  1.00  0.00    +0.001 A 
ATOM     60  C   UNL     1      -7.959 -23.809   9.038  1.00  0.00    +0.000 A 
ENDBRANCH  54  55
ENDBRANCH  53  54
ENDBRANCH  46  53
ENDBRANCH  44  46
ENDBRANCH  40  44
ENDBRANCH   1  35
TORSDOF 16
ENDMDL
