MODEL 1
REMARK VINA RESULT:    -8.973      0.000      0.000
REMARK INTER + INTRA:         -18.515
REMARK INTER:                 -17.366
REMARK INTRA:                  -1.150
REMARK UNBOUND:                -1.150
REMARK SMILES C[NH+](C)CC[C@H](CSc1ccccc1)Nc1ccc(S(=O)(=O)NC(=O)c2ccc(N3CC[NH+](Cc4ccccc4-c4ccc(Cl)cc4)CC3)cc2)cc1[N+](=O)[O-]
REMARK SMILES IDX 20 1 21 2 22 3 23 4 24 5 25 6 26 8 29 9 28 10 50 11 27 12
REMARK SMILES IDX 51 13 30 14 32 15 33 16 31 17 48 18 49 19 34 21 35 22 36 23
REMARK SMILES IDX 40 24 37 25 39 26 38 27 41 28 42 29 47 30 43 31 46 32 44 33
REMARK SMILES IDX 45 34 19 35 18 36 52 37 17 38 53 39 16 40 54 41 55 42 56 43
REMARK SMILES IDX 15 44 6 46 5 47 4 48 2 49 1 50 3 51 7 53 8 54 9 55 10 56
REMARK SMILES IDX 14 57 11 58 13 59 12 60
REMARK H PARENT 23 7 33 20 15 45 2 52
ROOT
ATOM      1  S   UNL     1      15.514  48.135  19.033  1.00  0.00    +0.264 S 
ATOM      2  O   UNL     1      15.424  46.764  18.587  1.00  0.00    -0.201 OA
ATOM      3  O   UNL     1      14.618  48.654  20.044  1.00  0.00    -0.201 OA
ENDROOT
BRANCH   1   4
ATOM      4  N   UNL     1      17.045  48.409  19.623  1.00  0.00    -0.245 N 
ATOM      5  C   UNL     1      18.222  48.027  18.973  1.00  0.00    +0.264 C 
ATOM      6  O   UNL     1      18.241  47.608  17.827  1.00  0.00    -0.268 OA
ATOM      7  H   UNL     1      17.016  48.753  20.575  1.00  0.00    +0.183 HD
BRANCH   5   8
ATOM      8  C   UNL     1      19.482  48.168  19.760  1.00  0.00    +0.040 A 
ATOM      9  C   UNL     1      21.791  48.471  21.410  1.00  0.00    +0.037 A 
ATOM     10  C   UNL     1      21.799  48.849  20.059  1.00  0.00    +0.027 A 
ATOM     11  C   UNL     1      20.603  47.903  21.900  1.00  0.00    +0.027 A 
ATOM     12  C   UNL     1      20.663  48.708  19.243  1.00  0.00    +0.016 A 
ATOM     13  C   UNL     1      19.466  47.755  21.094  1.00  0.00    +0.016 A 
BRANCH   9  14
ATOM     14  N   UNL     1      22.903  48.600  22.260  1.00  0.00    -0.360 N 
ATOM     15  C   UNL     1      24.565  47.474  23.743  1.00  0.00    +0.284 C 
ATOM     16  N   UNL     1      24.780  48.781  24.493  1.00  0.00    -0.328 N 
ATOM     17  C   UNL     1      23.163  47.403  23.098  1.00  0.00    +0.178 C 
ATOM     18  C   UNL     1      24.510  49.967  23.577  1.00  0.00    +0.284 C 
ATOM     19  C   UNL     1      23.103  49.893  22.950  1.00  0.00    +0.178 C 
ATOM     20  H   UNL     1      25.783  48.811  24.714  1.00  0.00    +0.348 HD
BRANCH  16  21
ATOM     21  C   UNL     1      24.070  48.824  25.825  1.00  0.00    +0.299 C 
BRANCH  21  22
ATOM     22  C   UNL     1      24.989  48.818  27.025  1.00  0.00    +0.014 A 
ATOM     23  C   UNL     1      25.974  47.813  27.108  1.00  0.00    +0.010 A 
ATOM     24  C   UNL     1      24.892  49.779  28.063  1.00  0.00    -0.010 A 
ATOM     25  C   UNL     1      26.839  47.746  28.199  1.00  0.00    +0.001 A 
ATOM     26  C   UNL     1      25.776  49.687  29.153  1.00  0.00    +0.009 A 
ATOM     27  C   UNL     1      26.739  48.681  29.222  1.00  0.00    +0.001 A 
BRANCH  24  28
ATOM     28  C   UNL     1      23.900  50.863  28.053  1.00  0.00    -0.018 A 
ATOM     29  C   UNL     1      22.656  50.696  28.687  1.00  0.00    +0.010 A 
ATOM     30  C   UNL     1      24.169  52.084  27.415  1.00  0.00    +0.010 A 
ATOM     31  C   UNL     1      21.694  51.710  28.650  1.00  0.00    +0.021 A 
ATOM     32  C   UNL     1      23.208  53.099  27.379  1.00  0.00    +0.021 A 
ATOM     33  C   UNL     1      21.972  52.904  27.991  1.00  0.00    +0.041 A 
ATOM     34 Cl   UNL     1      20.783  54.143  27.929  1.00  0.00    -0.084 Cl
ENDBRANCH  24  28
ENDBRANCH  21  22
ENDBRANCH  16  21
ENDBRANCH   9  14
ENDBRANCH   5   8
ENDBRANCH   1   4
BRANCH   1  35
ATOM     35  C   UNL     1      15.380  49.216  17.636  1.00  0.00    +0.094 A 
ATOM     36  C   UNL     1      16.109  50.403  17.600  1.00  0.00    +0.025 A 
ATOM     37  C   UNL     1      14.581  48.850  16.558  1.00  0.00    +0.110 A 
ATOM     38  C   UNL     1      16.059  51.222  16.463  1.00  0.00    +0.034 A 
ATOM     39  C   UNL     1      14.527  49.688  15.428  1.00  0.00    +0.293 A 
ATOM     40  C   UNL     1      15.312  50.869  15.326  1.00  0.00    +0.113 A 
BRANCH  39  41
ATOM     41  N   UNL     1      13.615  49.286  14.350  1.00  0.00    +0.065 N 
ATOM     42  O   UNL     1      13.814  49.744  13.213  1.00  0.00    -0.258 OA
ATOM     43  O   UNL     1      12.692  48.513  14.644  1.00  0.00    -0.258 OA
ENDBRANCH  39  41
BRANCH  40  44
ATOM     44  N   UNL     1      15.247  51.720  14.205  1.00  0.00    -0.376 N 
ATOM     45  H   UNL     1      15.778  51.297  13.426  1.00  0.00    +0.161 HD
BRANCH  44  46
ATOM     46  C   UNL     1      15.548  53.163  14.303  1.00  0.00    +0.095 C 
BRANCH  46  47
ATOM     47  C   UNL     1      14.905  53.835  13.064  1.00  0.00    +0.087 C 
BRANCH  47  48
ATOM     48  C   UNL     1      14.161  55.121  13.409  1.00  0.00    +0.263 C 
BRANCH  48  49
ATOM     49  N   UNL     1      14.037  56.070  12.232  1.00  0.00    -0.340 N 
ATOM     50  C   UNL     1      13.606  57.459  12.615  1.00  0.00    +0.332 C 
ATOM     51  C   UNL     1      15.222  56.080  11.307  1.00  0.00    +0.332 C 
ATOM     52  H   UNL     1      13.259  55.698  11.669  1.00  0.00    +0.347 HD
ENDBRANCH  48  49
ENDBRANCH  47  48
ENDBRANCH  46  47
BRANCH  46  53
ATOM     53  C   UNL     1      17.066  53.434  14.461  1.00  0.00    +0.100 C 
BRANCH  53  54
ATOM     54  S   UNL     1      17.836  54.291  13.034  1.00  0.00    -0.124 SA
BRANCH  54  55
ATOM     55  C   UNL     1      18.087  55.940  13.656  1.00  0.00    +0.007 A 
ATOM     56  C   UNL     1      17.197  56.984  13.385  1.00  0.00    +0.015 A 
ATOM     57  C   UNL     1      19.167  56.172  14.516  1.00  0.00    +0.015 A 
ATOM     58  C   UNL     1      17.405  58.251  13.937  1.00  0.00    +0.001 A 
ATOM     59  C   UNL     1      19.371  57.436  15.074  1.00  0.00    +0.001 A 
ATOM     60  C   UNL     1      18.493  58.478  14.779  1.00  0.00    +0.000 A 
ENDBRANCH  54  55
ENDBRANCH  53  54
ENDBRANCH  46  53
ENDBRANCH  44  46
ENDBRANCH  40  44
ENDBRANCH   1  35
TORSDOF 16
ENDMDL
MODEL 2
REMARK VINA RESULT:    -8.631      2.380      3.705
REMARK INTER + INTRA:         -17.854
REMARK INTER:                 -16.201
REMARK INTRA:                  -1.653
REMARK UNBOUND:                -1.150
REMARK SMILES C[NH+](C)CC[C@H](CSc1ccccc1)Nc1ccc(S(=O)(=O)NC(=O)c2ccc(N3CC[NH+](Cc4ccccc4-c4ccc(Cl)cc4)CC3)cc2)cc1[N+](=O)[O-]
REMARK SMILES IDX 20 1 21 2 22 3 23 4 24 5 25 6 26 8 29 9 28 10 50 11 27 12
REMARK SMILES IDX 51 13 30 14 32 15 33 16 31 17 48 18 49 19 34 21 35 22 36 23
REMARK SMILES IDX 40 24 37 25 39 26 38 27 41 28 42 29 47 30 43 31 46 32 44 33
REMARK SMILES IDX 45 34 19 35 18 36 52 37 17 38 53 39 16 40 54 41 55 42 56 43
REMARK SMILES IDX 15 44 6 46 5 47 4 48 2 49 1 50 3 51 7 53 8 54 9 55 10 56
REMARK SMILES IDX 14 57 11 58 13 59 12 60
REMARK H PARENT 23 7 33 20 15 45 2 52
ROOT
ATOM      1  S   UNL     1      16.033  46.115  20.440  1.00  0.00    +0.264 S 
ATOM      2  O   UNL     1      15.879  44.946  19.605  1.00  0.00    -0.201 OA
ATOM      3  O   UNL     1      15.301  46.252  21.681  1.00  0.00    -0.201 OA
ENDROOT
BRANCH   1   4
ATOM      4  N   UNL     1      17.636  46.269  20.858  1.00  0.00    -0.245 N 
ATOM      5  C   UNL     1      18.340  45.349  21.639  1.00  0.00    +0.264 C 
ATOM      6  O   UNL     1      17.891  44.256  21.945  1.00  0.00    -0.268 OA
ATOM      7  H   UNL     1      17.996  47.180  20.603  1.00  0.00    +0.183 HD
BRANCH   5   8
ATOM      8  C   UNL     1      19.701  45.770  22.083  1.00  0.00    +0.040 A 
ATOM      9  C   UNL     1      22.271  46.497  23.092  1.00  0.00    +0.037 A 
ATOM     10  C   UNL     1      21.580  47.313  22.183  1.00  0.00    +0.027 A 
ATOM     11  C   UNL     1      21.651  45.288  23.451  1.00  0.00    +0.027 A 
ATOM     12  C   UNL     1      20.312  46.963  21.688  1.00  0.00    +0.016 A 
ATOM     13  C   UNL     1      20.389  44.929  22.961  1.00  0.00    +0.016 A 
BRANCH   9  14
ATOM     14  N   UNL     1      23.537  46.813  23.613  1.00  0.00    -0.360 N 
ATOM     15  C   UNL     1      25.205  46.490  25.442  1.00  0.00    +0.284 C 
ATOM     16  N   UNL     1      25.831  47.836  25.108  1.00  0.00    -0.328 N 
ATOM     17  C   UNL     1      23.715  46.430  25.036  1.00  0.00    +0.178 C 
ATOM     18  C   UNL     1      25.625  48.164  23.635  1.00  0.00    +0.284 C 
ATOM     19  C   UNL     1      24.134  48.115  23.244  1.00  0.00    +0.178 C 
ATOM     20  H   UNL     1      26.843  47.710  25.235  1.00  0.00    +0.348 HD
BRANCH  16  21
ATOM     21  C   UNL     1      25.436  48.930  26.070  1.00  0.00    +0.299 C 
BRANCH  21  22
ATOM     22  C   UNL     1      25.796  48.656  27.512  1.00  0.00    +0.014 A 
ATOM     23  C   UNL     1      26.755  47.659  27.783  1.00  0.00    +0.010 A 
ATOM     24  C   UNL     1      25.205  49.360  28.592  1.00  0.00    -0.010 A 
ATOM     25  C   UNL     1      27.116  47.350  29.094  1.00  0.00    +0.001 A 
ATOM     26  C   UNL     1      25.587  49.026  29.905  1.00  0.00    +0.009 A 
ATOM     27  C   UNL     1      26.531  48.032  30.154  1.00  0.00    +0.001 A 
BRANCH  24  28
ATOM     28  C   UNL     1      24.204  50.417  28.398  1.00  0.00    -0.018 A 
ATOM     29  C   UNL     1      22.844  50.168  28.659  1.00  0.00    +0.010 A 
ATOM     30  C   UNL     1      24.577  51.695  27.953  1.00  0.00    +0.010 A 
ATOM     31  C   UNL     1      21.882  51.158  28.443  1.00  0.00    +0.021 A 
ATOM     32  C   UNL     1      23.615  52.686  27.738  1.00  0.00    +0.021 A 
ATOM     33  C   UNL     1      22.271  52.411  27.977  1.00  0.00    +0.041 A 
ATOM     34 Cl   UNL     1      21.086  53.622  27.692  1.00  0.00    -0.084 Cl
ENDBRANCH  24  28
ENDBRANCH  21  22
ENDBRANCH  16  21
ENDBRANCH   9  14
ENDBRANCH   5   8
ENDBRANCH   1   4
BRANCH   1  35
ATOM     35  C   UNL     1      15.686  47.567  19.486  1.00  0.00    +0.094 A 
ATOM     36  C   UNL     1      16.667  48.109  18.658  1.00  0.00    +0.025 A 
ATOM     37  C   UNL     1      14.416  48.133  19.534  1.00  0.00    +0.110 A 
ATOM     38  C   UNL     1      16.369  49.215  17.849  1.00  0.00    +0.034 A 
ATOM     39  C   UNL     1      14.133  49.252  18.727  1.00  0.00    +0.293 A 
ATOM     40  C   UNL     1      15.085  49.788  17.818  1.00  0.00    +0.113 A 
BRANCH  39  41
ATOM     41  N   UNL     1      12.798  49.848  18.869  1.00  0.00    +0.065 N 
ATOM     42  O   UNL     1      12.099  49.970  17.851  1.00  0.00    -0.258 OA
ATOM     43  O   UNL     1      12.451  50.202  20.006  1.00  0.00    -0.258 OA
ENDBRANCH  39  41
BRANCH  40  44
ATOM     44  N   UNL     1      14.812  50.918  17.024  1.00  0.00    -0.376 N 
ATOM     45  H   UNL     1      14.123  51.517  17.509  1.00  0.00    +0.161 HD
BRANCH  44  46
ATOM     46  C   UNL     1      14.466  50.801  15.592  1.00  0.00    +0.095 C 
BRANCH  46  47
ATOM     47  C   UNL     1      14.324  49.287  15.294  1.00  0.00    +0.087 C 
BRANCH  47  48
ATOM     48  C   UNL     1      13.487  49.005  14.050  1.00  0.00    +0.263 C 
BRANCH  48  49
ATOM     49  N   UNL     1      12.642  47.752  14.172  1.00  0.00    -0.340 N 
ATOM     50  C   UNL     1      11.456  47.907  15.084  1.00  0.00    +0.332 C 
ATOM     51  C   UNL     1      12.271  47.115  12.862  1.00  0.00    +0.332 C 
ATOM     52  H   UNL     1      13.249  47.066  14.643  1.00  0.00    +0.347 HD
ENDBRANCH  48  49
ENDBRANCH  47  48
ENDBRANCH  46  47
BRANCH  46  53
ATOM     53  C   UNL     1      15.480  51.540  14.682  1.00  0.00    +0.100 C 
BRANCH  53  54
ATOM     54  S   UNL     1      15.612  53.341  15.000  1.00  0.00    -0.124 SA
BRANCH  54  55
ATOM     55  C   UNL     1      16.248  53.965  13.459  1.00  0.00    +0.007 A 
ATOM     56  C   UNL     1      17.148  53.239  12.674  1.00  0.00    +0.015 A 
ATOM     57  C   UNL     1      15.760  55.187  12.982  1.00  0.00    +0.015 A 
ATOM     58  C   UNL     1      17.581  53.745  11.445  1.00  0.00    +0.001 A 
ATOM     59  C   UNL     1      16.187  55.689  11.751  1.00  0.00    +0.001 A 
ATOM     60  C   UNL     1      17.103  54.970  10.985  1.00  0.00    +0.000 A 
ENDBRANCH  54  55
ENDBRANCH  53  54
ENDBRANCH  46  53
ENDBRANCH  44  46
ENDBRANCH  40  44
ENDBRANCH   1  35
TORSDOF 16
ENDMDL
MODEL 3
REMARK VINA RESULT:    -8.573      3.353      4.963
REMARK INTER + INTRA:         -17.741
REMARK INTER:                 -15.574
REMARK INTRA:                  -2.167
REMARK UNBOUND:                -1.150
REMARK SMILES C[NH+](C)CC[C@H](CSc1ccccc1)Nc1ccc(S(=O)(=O)NC(=O)c2ccc(N3CC[NH+](Cc4ccccc4-c4ccc(Cl)cc4)CC3)cc2)cc1[N+](=O)[O-]
REMARK SMILES IDX 20 1 21 2 22 3 23 4 24 5 25 6 26 8 29 9 28 10 50 11 27 12
REMARK SMILES IDX 51 13 30 14 32 15 33 16 31 17 48 18 49 19 34 21 35 22 36 23
REMARK SMILES IDX 40 24 37 25 39 26 38 27 41 28 42 29 47 30 43 31 46 32 44 33
REMARK SMILES IDX 45 34 19 35 18 36 52 37 17 38 53 39 16 40 54 41 55 42 56 43
REMARK SMILES IDX 15 44 6 46 5 47 4 48 2 49 1 50 3 51 7 53 8 54 9 55 10 56
REMARK SMILES IDX 14 57 11 58 13 59 12 60
REMARK H PARENT 23 7 33 20 15 45 2 52
ROOT
ATOM      1  S   UNL     1      15.401  46.021  20.913  1.00  0.00    +0.264 S 
ATOM      2  O   UNL     1      15.286  44.760  20.219  1.00  0.00    -0.201 OA
ATOM      3  O   UNL     1      14.590  46.315  22.074  1.00  0.00    -0.201 OA
ENDROOT
BRANCH   1   4
ATOM      4  N   UNL     1      16.974  46.215  21.418  1.00  0.00    -0.245 N 
ATOM      5  C   UNL     1      17.943  45.208  21.390  1.00  0.00    +0.264 C 
ATOM      6  O   UNL     1      17.771  44.137  20.830  1.00  0.00    -0.268 OA
ATOM      7  H   UNL     1      17.104  47.105  21.884  1.00  0.00    +0.183 HD
BRANCH   5   8
ATOM      8  C   UNL     1      19.229  45.513  22.083  1.00  0.00    +0.040 A 
ATOM      9  C   UNL     1      21.702  46.245  23.306  1.00  0.00    +0.037 A 
ATOM     10  C   UNL     1      21.343  44.901  23.121  1.00  0.00    +0.027 A 
ATOM     11  C   UNL     1      20.768  47.210  22.893  1.00  0.00    +0.027 A 
ATOM     12  C   UNL     1      20.129  44.535  22.514  1.00  0.00    +0.016 A 
ATOM     13  C   UNL     1      19.554  46.856  22.290  1.00  0.00    +0.016 A 
BRANCH   9  14
ATOM     14  N   UNL     1      22.907  46.652  23.904  1.00  0.00    -0.360 N 
ATOM     15  C   UNL     1      24.113  48.363  25.264  1.00  0.00    +0.284 C 
ATOM     16  N   UNL     1      25.434  47.915  24.655  1.00  0.00    -0.328 N 
ATOM     17  C   UNL     1      22.919  48.075  24.327  1.00  0.00    +0.178 C 
ATOM     18  C   UNL     1      25.360  46.447  24.255  1.00  0.00    +0.284 C 
ATOM     19  C   UNL     1      24.173  46.174  23.309  1.00  0.00    +0.178 C 
ATOM     20  H   UNL     1      26.122  47.971  25.415  1.00  0.00    +0.348 HD
BRANCH  16  21
ATOM     21  C   UNL     1      25.940  48.848  23.581  1.00  0.00    +0.299 C 
BRANCH  21  22
ATOM     22  C   UNL     1      25.959  50.306  23.977  1.00  0.00    +0.014 A 
ATOM     23  C   UNL     1      26.808  50.701  25.031  1.00  0.00    +0.010 A 
ATOM     24  C   UNL     1      25.156  51.281  23.332  1.00  0.00    -0.010 A 
ATOM     25  C   UNL     1      26.856  52.029  25.452  1.00  0.00    +0.001 A 
ATOM     26  C   UNL     1      25.224  52.614  23.778  1.00  0.00    +0.009 A 
ATOM     27  C   UNL     1      26.063  52.984  24.827  1.00  0.00    +0.001 A 
BRANCH  24  28
ATOM     28  C   UNL     1      24.250  50.956  22.222  1.00  0.00    -0.018 A 
ATOM     29  C   UNL     1      24.759  50.713  20.934  1.00  0.00    +0.010 A 
ATOM     30  C   UNL     1      22.862  50.878  22.420  1.00  0.00    +0.010 A 
ATOM     31  C   UNL     1      23.901  50.438  19.867  1.00  0.00    +0.021 A 
ATOM     32  C   UNL     1      22.003  50.603  21.353  1.00  0.00    +0.021 A 
ATOM     33  C   UNL     1      22.525  50.391  20.079  1.00  0.00    +0.041 A 
ATOM     34 Cl   UNL     1      21.468  50.073  18.763  1.00  0.00    -0.084 Cl
ENDBRANCH  24  28
ENDBRANCH  21  22
ENDBRANCH  16  21
ENDBRANCH   9  14
ENDBRANCH   5   8
ENDBRANCH   1   4
BRANCH   1  35
ATOM     35  C   UNL     1      15.142  47.347  19.767  1.00  0.00    +0.094 A 
ATOM     36  C   UNL     1      13.889  47.948  19.667  1.00  0.00    +0.025 A 
ATOM     37  C   UNL     1      16.208  47.813  19.003  1.00  0.00    +0.110 A 
ATOM     38  C   UNL     1      13.704  49.045  18.813  1.00  0.00    +0.034 A 
ATOM     39  C   UNL     1      16.006  48.906  18.139  1.00  0.00    +0.293 A 
ATOM     40  C   UNL     1      14.762  49.590  18.063  1.00  0.00    +0.113 A 
BRANCH  39  41
ATOM     41  N   UNL     1      17.147  49.311  17.308  1.00  0.00    +0.065 N 
ATOM     42  O   UNL     1      17.655  48.464  16.557  1.00  0.00    -0.258 OA
ATOM     43  O   UNL     1      17.541  50.482  17.414  1.00  0.00    -0.258 OA
ENDBRANCH  39  41
BRANCH  40  44
ATOM     44  N   UNL     1      14.550  50.671  17.186  1.00  0.00    -0.376 N 
ATOM     45  H   UNL     1      13.841  51.304  17.592  1.00  0.00    +0.161 HD
BRANCH  44  46
ATOM     46  C   UNL     1      14.286  50.467  15.746  1.00  0.00    +0.095 C 
BRANCH  46  47
ATOM     47  C   UNL     1      14.247  48.935  15.516  1.00  0.00    +0.087 C 
BRANCH  47  48
ATOM     48  C   UNL     1      12.954  48.471  14.853  1.00  0.00    +0.263 C 
BRANCH  48  49
ATOM     49  N   UNL     1      13.147  48.035  13.413  1.00  0.00    -0.340 N 
ATOM     50  C   UNL     1      12.071  47.114  12.908  1.00  0.00    +0.332 C 
ATOM     51  C   UNL     1      13.431  49.156  12.452  1.00  0.00    +0.332 C 
ATOM     52  H   UNL     1      14.003  47.462  13.420  1.00  0.00    +0.347 HD
ENDBRANCH  48  49
ENDBRANCH  47  48
ENDBRANCH  46  47
BRANCH  46  53
ATOM     53  C   UNL     1      15.303  51.222  14.853  1.00  0.00    +0.100 C 
BRANCH  53  54
ATOM     54  S   UNL     1      15.421  53.020  15.190  1.00  0.00    -0.124 SA
BRANCH  54  55
ATOM     55  C   UNL     1      16.023  53.670  13.646  1.00  0.00    +0.007 A 
ATOM     56  C   UNL     1      15.522  54.849  13.086  1.00  0.00    +0.015 A 
ATOM     57  C   UNL     1      17.094  53.020  13.020  1.00  0.00    +0.015 A 
ATOM     58  C   UNL     1      16.061  55.351  11.898  1.00  0.00    +0.001 A 
ATOM     59  C   UNL     1      17.637  53.526  11.838  1.00  0.00    +0.001 A 
ATOM     60  C   UNL     1      17.116  54.689  11.273  1.00  0.00    +0.000 A 
ENDBRANCH  54  55
ENDBRANCH  53  54
ENDBRANCH  46  53
ENDBRANCH  44  46
ENDBRANCH  40  44
ENDBRANCH   1  35
TORSDOF 16
ENDMDL
MODEL 4
REMARK VINA RESULT:    -8.467      7.897     12.457
REMARK INTER + INTRA:         -17.536
REMARK INTER:                 -14.377
REMARK INTRA:                  -3.159
REMARK UNBOUND:                -1.150
REMARK SMILES C[NH+](C)CC[C@H](CSc1ccccc1)Nc1ccc(S(=O)(=O)NC(=O)c2ccc(N3CC[NH+](Cc4ccccc4-c4ccc(Cl)cc4)CC3)cc2)cc1[N+](=O)[O-]
REMARK SMILES IDX 20 1 21 2 22 3 23 4 24 5 25 6 26 8 29 9 28 10 50 11 27 12
REMARK SMILES IDX 51 13 30 14 32 15 33 16 31 17 48 18 49 19 34 21 35 22 36 23
REMARK SMILES IDX 40 24 37 25 39 26 38 27 41 28 42 29 47 30 43 31 46 32 44 33
REMARK SMILES IDX 45 34 19 35 18 36 52 37 17 38 53 39 16 40 54 41 55 42 56 43
REMARK SMILES IDX 15 44 6 46 5 47 4 48 2 49 1 50 3 51 7 53 8 54 9 55 10 56
REMARK SMILES IDX 14 57 11 58 13 59 12 60
REMARK H PARENT 23 7 33 20 15 45 2 52
ROOT
ATOM      1  S   UNL     1      26.125  48.409  27.248  1.00  0.00    +0.264 S 
ATOM      2  O   UNL     1      26.392  47.956  28.593  1.00  0.00    -0.201 OA
ATOM      3  O   UNL     1      27.196  48.588  26.291  1.00  0.00    -0.201 OA
ENDROOT
BRANCH   1   4
ATOM      4  N   UNL     1      25.065  47.350  26.525  1.00  0.00    -0.245 N 
ATOM      5  C   UNL     1      25.338  46.634  25.356  1.00  0.00    +0.264 C 
ATOM      6  O   UNL     1      26.448  46.588  24.849  1.00  0.00    -0.268 OA
ATOM      7  H   UNL     1      24.148  47.399  26.950  1.00  0.00    +0.183 HD
BRANCH   5   8
ATOM      8  C   UNL     1      24.186  45.905  24.748  1.00  0.00    +0.040 A 
ATOM      9  C   UNL     1      21.885  44.659  23.607  1.00  0.00    +0.037 A 
ATOM     10  C   UNL     1      22.818  43.930  24.361  1.00  0.00    +0.027 A 
ATOM     11  C   UNL     1      22.159  46.023  23.413  1.00  0.00    +0.027 A 
ATOM     12  C   UNL     1      23.950  44.539  24.930  1.00  0.00    +0.016 A 
ATOM     13  C   UNL     1      23.286  46.640  23.973  1.00  0.00    +0.016 A 
BRANCH   9  14
ATOM     14  N   UNL     1      20.740  44.089  23.026  1.00  0.00    -0.360 N 
ATOM     15  C   UNL     1      19.780  42.677  21.206  1.00  0.00    +0.284 C 
ATOM     16  N   UNL     1      18.435  43.368  21.379  1.00  0.00    -0.328 N 
ATOM     17  C   UNL     1      20.954  43.578  21.649  1.00  0.00    +0.178 C 
ATOM     18  C   UNL     1      18.273  43.857  22.812  1.00  0.00    +0.284 C 
ATOM     19  C   UNL     1      19.442  44.767  23.240  1.00  0.00    +0.178 C 
ATOM     20  H   UNL     1      17.728  42.636  21.244  1.00  0.00    +0.348 HD
BRANCH  16  21
ATOM     21  C   UNL     1      18.158  44.402  20.314  1.00  0.00    +0.299 C 
BRANCH  21  22
ATOM     22  C   UNL     1      17.156  45.460  20.714  1.00  0.00    +0.014 A 
ATOM     23  C   UNL     1      15.857  45.048  21.075  1.00  0.00    +0.010 A 
ATOM     24  C   UNL     1      17.474  46.842  20.734  1.00  0.00    -0.010 A 
ATOM     25  C   UNL     1      14.885  45.980  21.437  1.00  0.00    +0.001 A 
ATOM     26  C   UNL     1      16.474  47.760  21.101  1.00  0.00    +0.009 A 
ATOM     27  C   UNL     1      15.193  47.335  21.448  1.00  0.00    +0.001 A 
BRANCH  24  28
ATOM     28  C   UNL     1      18.804  47.356  20.378  1.00  0.00    -0.018 A 
ATOM     29  C   UNL     1      19.652  47.884  21.368  1.00  0.00    +0.010 A 
ATOM     30  C   UNL     1      19.259  47.330  19.050  1.00  0.00    +0.010 A 
ATOM     31  C   UNL     1      20.904  48.406  21.032  1.00  0.00    +0.021 A 
ATOM     32  C   UNL     1      20.511  47.851  18.714  1.00  0.00    +0.021 A 
ATOM     33  C   UNL     1      21.325  48.394  19.705  1.00  0.00    +0.041 A 
ATOM     34 Cl   UNL     1      22.856  49.055  19.288  1.00  0.00    -0.084 Cl
ENDBRANCH  24  28
ENDBRANCH  21  22
ENDBRANCH  16  21
ENDBRANCH   9  14
ENDBRANCH   5   8
ENDBRANCH   1   4
BRANCH   1  35
ATOM     35  C   UNL     1      25.241  49.942  27.309  1.00  0.00    +0.094 A 
ATOM     36  C   UNL     1      24.059  50.038  28.040  1.00  0.00    +0.025 A 
ATOM     37  C   UNL     1      25.759  51.060  26.662  1.00  0.00    +0.110 A 
ATOM     38  C   UNL     1      23.399  51.270  28.148  1.00  0.00    +0.034 A 
ATOM     39  C   UNL     1      25.079  52.289  26.765  1.00  0.00    +0.293 A 
ATOM     40  C   UNL     1      23.911  52.441  27.560  1.00  0.00    +0.113 A 
BRANCH  39  41
ATOM     41  N   UNL     1      25.635  53.417  26.007  1.00  0.00    +0.065 N 
ATOM     42  O   UNL     1      25.626  53.350  24.768  1.00  0.00    -0.258 OA
ATOM     43  O   UNL     1      26.088  54.371  26.656  1.00  0.00    -0.258 OA
ENDBRANCH  39  41
BRANCH  40  44
ATOM     44  N   UNL     1      23.218  53.663  27.651  1.00  0.00    -0.376 N 
ATOM     45  H   UNL     1      23.552  54.183  28.480  1.00  0.00    +0.161 HD
BRANCH  44  46
ATOM     46  C   UNL     1      21.744  53.733  27.567  1.00  0.00    +0.095 C 
BRANCH  46  47
ATOM     47  C   UNL     1      21.202  53.331  28.962  1.00  0.00    +0.087 C 
BRANCH  47  48
ATOM     48  C   UNL     1      19.765  53.790  29.192  1.00  0.00    +0.263 C 
BRANCH  48  49
ATOM     49  N   UNL     1      19.182  53.285  30.498  1.00  0.00    -0.340 N 
ATOM     50  C   UNL     1      20.086  53.482  31.683  1.00  0.00    +0.332 C 
ATOM     51  C   UNL     1      17.776  53.741  30.775  1.00  0.00    +0.332 C 
ATOM     52  H   UNL     1      19.116  52.264  30.383  1.00  0.00    +0.347 HD
ENDBRANCH  48  49
ENDBRANCH  47  48
ENDBRANCH  46  47
BRANCH  46  53
ATOM     53  C   UNL     1      21.185  52.886  26.396  1.00  0.00    +0.100 C 
BRANCH  53  54
ATOM     54  S   UNL     1      21.499  53.592  24.733  1.00  0.00    -0.124 SA
BRANCH  54  55
ATOM     55  C   UNL     1      22.407  52.293  23.921  1.00  0.00    +0.007 A 
ATOM     56  C   UNL     1      22.615  51.044  24.515  1.00  0.00    +0.015 A 
ATOM     57  C   UNL     1      22.851  52.506  22.610  1.00  0.00    +0.015 A 
ATOM     58  C   UNL     1      23.289  50.036  23.820  1.00  0.00    +0.001 A 
ATOM     59  C   UNL     1      23.517  51.496  21.914  1.00  0.00    +0.001 A 
ATOM     60  C   UNL     1      23.742  50.262  22.521  1.00  0.00    +0.000 A 
ENDBRANCH  54  55
ENDBRANCH  53  54
ENDBRANCH  46  53
ENDBRANCH  44  46
ENDBRANCH  40  44
ENDBRANCH   1  35
TORSDOF 16
ENDMDL
MODEL 5
REMARK VINA RESULT:    -8.306      5.596      7.435
REMARK INTER + INTRA:         -17.225
REMARK INTER:                 -15.725
REMARK INTRA:                  -1.500
REMARK UNBOUND:                -1.150
REMARK SMILES C[NH+](C)CC[C@H](CSc1ccccc1)Nc1ccc(S(=O)(=O)NC(=O)c2ccc(N3CC[NH+](Cc4ccccc4-c4ccc(Cl)cc4)CC3)cc2)cc1[N+](=O)[O-]
REMARK SMILES IDX 20 1 21 2 22 3 23 4 24 5 25 6 26 8 29 9 28 10 50 11 27 12
REMARK SMILES IDX 51 13 30 14 32 15 33 16 31 17 48 18 49 19 34 21 35 22 36 23
REMARK SMILES IDX 40 24 37 25 39 26 38 27 41 28 42 29 47 30 43 31 46 32 44 33
REMARK SMILES IDX 45 34 19 35 18 36 52 37 17 38 53 39 16 40 54 41 55 42 56 43
REMARK SMILES IDX 15 44 6 46 5 47 4 48 2 49 1 50 3 51 7 53 8 54 9 55 10 56
REMARK SMILES IDX 14 57 11 58 13 59 12 60
REMARK H PARENT 23 7 33 20 15 45 2 52
ROOT
ATOM      1  S   UNL     1      20.470  47.197  19.382  1.00  0.00    +0.264 S 
ATOM      2  O   UNL     1      21.143  48.370  19.889  1.00  0.00    -0.201 OA
ATOM      3  O   UNL     1      21.033  46.419  18.300  1.00  0.00    -0.201 OA
ENDROOT
BRANCH   1   4
ATOM      4  N   UNL     1      20.256  46.118  20.631  1.00  0.00    -0.245 N 
ATOM      5  C   UNL     1      20.388  46.441  21.984  1.00  0.00    +0.264 C 
ATOM      6  O   UNL     1      20.504  47.587  22.385  1.00  0.00    -0.268 OA
ATOM      7  H   UNL     1      20.165  45.170  20.286  1.00  0.00    +0.183 HD
BRANCH   5   8
ATOM      8  C   UNL     1      20.370  45.292  22.938  1.00  0.00    +0.040 A 
ATOM      9  C   UNL     1      20.303  43.215  24.894  1.00  0.00    +0.037 A 
ATOM     10  C   UNL     1      21.146  43.143  23.775  1.00  0.00    +0.027 A 
ATOM     11  C   UNL     1      19.468  44.341  24.985  1.00  0.00    +0.027 A 
ATOM     12  C   UNL     1      21.188  44.166  22.811  1.00  0.00    +0.016 A 
ATOM     13  C   UNL     1      19.500  45.365  24.028  1.00  0.00    +0.016 A 
BRANCH   9  14
ATOM     14  N   UNL     1      20.235  42.217  25.881  1.00  0.00    -0.360 N 
ATOM     15  C   UNL     1      19.287  41.474  28.068  1.00  0.00    +0.284 C 
ATOM     16  N   UNL     1      20.474  40.542  28.265  1.00  0.00    -0.328 N 
ATOM     17  C   UNL     1      19.641  42.675  27.162  1.00  0.00    +0.178 C 
ATOM     18  C   UNL     1      21.029  40.100  26.917  1.00  0.00    +0.284 C 
ATOM     19  C   UNL     1      21.391  41.305  26.027  1.00  0.00    +0.178 C 
ATOM     20  H   UNL     1      20.093  39.699  28.709  1.00  0.00    +0.348 HD
BRANCH  16  21
ATOM     21  C   UNL     1      21.499  41.082  29.233  1.00  0.00    +0.299 C 
BRANCH  21  22
ATOM     22  C   UNL     1      21.161  40.863  30.690  1.00  0.00    +0.014 A 
ATOM     23  C   UNL     1      20.077  40.018  31.004  1.00  0.00    +0.010 A 
ATOM     24  C   UNL     1      21.888  41.475  31.742  1.00  0.00    -0.010 A 
ATOM     25  C   UNL     1      19.707  39.790  32.329  1.00  0.00    +0.001 A 
ATOM     26  C   UNL     1      21.492  41.230  33.069  1.00  0.00    +0.009 A 
ATOM     27  C   UNL     1      20.412  40.397  33.360  1.00  0.00    +0.001 A 
BRANCH  24  28
ATOM     28  C   UNL     1      23.034  42.364  31.503  1.00  0.00    -0.018 A 
ATOM     29  C   UNL     1      22.851  43.756  31.418  1.00  0.00    +0.010 A 
ATOM     30  C   UNL     1      24.331  41.848  31.358  1.00  0.00    +0.010 A 
ATOM     31  C   UNL     1      23.931  44.603  31.156  1.00  0.00    +0.021 A 
ATOM     32  C   UNL     1      25.412  42.695  31.097  1.00  0.00    +0.021 A 
ATOM     33  C   UNL     1      25.206  44.069  30.990  1.00  0.00    +0.041 A 
ATOM     34 Cl   UNL     1      26.530  45.108  30.648  1.00  0.00    -0.084 Cl
ENDBRANCH  24  28
ENDBRANCH  21  22
ENDBRANCH  16  21
ENDBRANCH   9  14
ENDBRANCH   5   8
ENDBRANCH   1   4
BRANCH   1  35
ATOM     35  C   UNL     1      18.824  47.630  18.890  1.00  0.00    +0.094 A 
ATOM     36  C   UNL     1      18.509  47.751  17.539  1.00  0.00    +0.025 A 
ATOM     37  C   UNL     1      17.841  47.802  19.859  1.00  0.00    +0.110 A 
ATOM     38  C   UNL     1      17.190  48.022  17.148  1.00  0.00    +0.034 A 
ATOM     39  C   UNL     1      16.523  48.089  19.455  1.00  0.00    +0.293 A 
ATOM     40  C   UNL     1      16.149  48.148  18.085  1.00  0.00    +0.113 A 
BRANCH  39  41
ATOM     41  N   UNL     1      15.542  48.327  20.521  1.00  0.00    +0.065 N 
ATOM     42  O   UNL     1      15.866  49.072  21.460  1.00  0.00    -0.258 OA
ATOM     43  O   UNL     1      14.443  47.760  20.422  1.00  0.00    -0.258 OA
ENDBRANCH  39  41
BRANCH  40  44
ATOM     44  N   UNL     1      14.836  48.453  17.676  1.00  0.00    -0.376 N 
ATOM     45  H   UNL     1      14.536  47.771  16.960  1.00  0.00    +0.161 HD
BRANCH  44  46
ATOM     46  C   UNL     1      14.441  49.819  17.276  1.00  0.00    +0.095 C 
BRANCH  46  47
ATOM     47  C   UNL     1      12.892  49.847  17.266  1.00  0.00    +0.087 C 
BRANCH  47  48
ATOM     48  C   UNL     1      12.280  48.514  16.847  1.00  0.00    +0.263 C 
BRANCH  48  49
ATOM     49  N   UNL     1      11.924  48.459  15.373  1.00  0.00    -0.340 N 
ATOM     50  C   UNL     1      13.097  48.174  14.476  1.00  0.00    +0.332 C 
ATOM     51  C   UNL     1      10.737  47.596  15.046  1.00  0.00    +0.332 C 
ATOM     52  H   UNL     1      11.635  49.418  15.133  1.00  0.00    +0.347 HD
ENDBRANCH  48  49
ENDBRANCH  47  48
ENDBRANCH  46  47
BRANCH  46  53
ATOM     53  C   UNL     1      15.097  50.250  15.939  1.00  0.00    +0.100 C 
BRANCH  53  54
ATOM     54  S   UNL     1      16.499  51.417  16.123  1.00  0.00    -0.124 SA
BRANCH  54  55
ATOM     55  C   UNL     1      16.140  52.657  14.898  1.00  0.00    +0.007 A 
ATOM     56  C   UNL     1      16.885  52.781  13.721  1.00  0.00    +0.015 A 
ATOM     57  C   UNL     1      15.020  53.476  15.084  1.00  0.00    +0.015 A 
ATOM     58  C   UNL     1      16.536  53.735  12.761  1.00  0.00    +0.001 A 
ATOM     59  C   UNL     1      14.667  54.424  14.122  1.00  0.00    +0.001 A 
ATOM     60  C   UNL     1      15.429  54.558  12.962  1.00  0.00    +0.000 A 
ENDBRANCH  54  55
ENDBRANCH  53  54
ENDBRANCH  46  53
ENDBRANCH  44  46
ENDBRANCH  40  44
ENDBRANCH   1  35
TORSDOF 16
ENDMDL
MODEL 6
REMARK VINA RESULT:    -8.109      7.212     10.387
REMARK INTER + INTRA:         -16.844
REMARK INTER:                 -14.115
REMARK INTRA:                  -2.728
REMARK UNBOUND:                -1.150
REMARK SMILES C[NH+](C)CC[C@H](CSc1ccccc1)Nc1ccc(S(=O)(=O)NC(=O)c2ccc(N3CC[NH+](Cc4ccccc4-c4ccc(Cl)cc4)CC3)cc2)cc1[N+](=O)[O-]
REMARK SMILES IDX 20 1 21 2 22 3 23 4 24 5 25 6 26 8 29 9 28 10 50 11 27 12
REMARK SMILES IDX 51 13 30 14 32 15 33 16 31 17 48 18 49 19 34 21 35 22 36 23
REMARK SMILES IDX 40 24 37 25 39 26 38 27 41 28 42 29 47 30 43 31 46 32 44 33
REMARK SMILES IDX 45 34 19 35 18 36 52 37 17 38 53 39 16 40 54 41 55 42 56 43
REMARK SMILES IDX 15 44 6 46 5 47 4 48 2 49 1 50 3 51 7 53 8 54 9 55 10 56
REMARK SMILES IDX 14 57 11 58 13 59 12 60
REMARK H PARENT 23 7 33 20 15 45 2 52
ROOT
ATOM      1  S   UNL     1      21.660  52.586  24.378  1.00  0.00    +0.264 S 
ATOM      2  O   UNL     1      20.533  51.838  23.870  1.00  0.00    -0.201 OA
ATOM      3  O   UNL     1      21.507  53.946  24.847  1.00  0.00    -0.201 OA
ENDROOT
BRANCH   1   4
ATOM      4  N   UNL     1      22.322  51.755  25.659  1.00  0.00    -0.245 N 
ATOM      5  C   UNL     1      23.311  52.265  26.504  1.00  0.00    +0.264 C 
ATOM      6  O   UNL     1      23.660  53.434  26.488  1.00  0.00    -0.268 OA
ATOM      7  H   UNL     1      22.028  50.786  25.660  1.00  0.00    +0.183 HD
BRANCH   5   8
ATOM      8  C   UNL     1      23.926  51.293  27.456  1.00  0.00    +0.040 A 
ATOM      9  C   UNL     1      25.236  49.409  29.154  1.00  0.00    +0.037 A 
ATOM     10  C   UNL     1      23.838  49.532  29.132  1.00  0.00    +0.027 A 
ATOM     11  C   UNL     1      25.959  50.284  28.326  1.00  0.00    +0.027 A 
ATOM     12  C   UNL     1      23.187  50.454  28.294  1.00  0.00    +0.016 A 
ATOM     13  C   UNL     1      25.321  51.208  27.488  1.00  0.00    +0.016 A 
BRANCH   9  14
ATOM     14  N   UNL     1      25.923  48.498  29.974  1.00  0.00    -0.360 N 
ATOM     15  C   UNL     1      27.336  46.445  30.122  1.00  0.00    +0.284 C 
ATOM     16  N   UNL     1      26.853  46.217  31.548  1.00  0.00    -0.328 N 
ATOM     17  C   UNL     1      26.309  47.240  29.286  1.00  0.00    +0.178 C 
ATOM     18  C   UNL     1      26.486  47.543  32.200  1.00  0.00    +0.284 C 
ATOM     19  C   UNL     1      25.451  48.322  31.364  1.00  0.00    +0.178 C 
ATOM     20  H   UNL     1      27.667  45.860  32.062  1.00  0.00    +0.348 HD
BRANCH  16  21
ATOM     21  C   UNL     1      25.803  45.138  31.653  1.00  0.00    +0.299 C 
BRANCH  21  22
ATOM     22  C   UNL     1      26.052  44.125  32.747  1.00  0.00    +0.014 A 
ATOM     23  C   UNL     1      27.049  44.407  33.703  1.00  0.00    +0.010 A 
ATOM     24  C   UNL     1      25.327  42.911  32.841  1.00  0.00    -0.010 A 
ATOM     25  C   UNL     1      27.336  43.504  34.726  1.00  0.00    +0.001 A 
ATOM     26  C   UNL     1      25.638  42.017  33.881  1.00  0.00    +0.009 A 
ATOM     27  C   UNL     1      26.632  42.309  34.813  1.00  0.00    +0.001 A 
BRANCH  24  28
ATOM     28  C   UNL     1      24.268  42.543  31.890  1.00  0.00    -0.018 A 
ATOM     29  C   UNL     1      22.946  42.979  32.092  1.00  0.00    +0.010 A 
ATOM     30  C   UNL     1      24.549  41.754  30.764  1.00  0.00    +0.010 A 
ATOM     31  C   UNL     1      21.928  42.603  31.212  1.00  0.00    +0.021 A 
ATOM     32  C   UNL     1      23.531  41.378  29.883  1.00  0.00    +0.021 A 
ATOM     33  C   UNL     1      22.223  41.799  30.114  1.00  0.00    +0.041 A 
ATOM     34 Cl   UNL     1      20.968  41.320  29.043  1.00  0.00    -0.084 Cl
ENDBRANCH  24  28
ENDBRANCH  21  22
ENDBRANCH  16  21
ENDBRANCH   9  14
ENDBRANCH   5   8
ENDBRANCH   1   4
BRANCH   1  35
ATOM     35  C   UNL     1      22.946  52.612  23.160  1.00  0.00    +0.094 A 
ATOM     36  C   UNL     1      23.196  53.775  22.435  1.00  0.00    +0.025 A 
ATOM     37  C   UNL     1      23.733  51.481  22.968  1.00  0.00    +0.110 A 
ATOM     38  C   UNL     1      24.261  53.817  21.524  1.00  0.00    +0.034 A 
ATOM     39  C   UNL     1      24.790  51.531  22.039  1.00  0.00    +0.293 A 
ATOM     40  C   UNL     1      25.120  52.720  21.334  1.00  0.00    +0.113 A 
BRANCH  39  41
ATOM     41  N   UNL     1      25.543  50.288  21.828  1.00  0.00    +0.065 N 
ATOM     42  O   UNL     1      24.904  49.238  21.654  1.00  0.00    -0.258 OA
ATOM     43  O   UNL     1      26.781  50.362  21.843  1.00  0.00    -0.258 OA
ENDBRANCH  39  41
BRANCH  40  44
ATOM     44  N   UNL     1      26.165  52.769  20.390  1.00  0.00    -0.376 N 
ATOM     45  H   UNL     1      26.583  53.714  20.396  1.00  0.00    +0.161 HD
BRANCH  44  46
ATOM     46  C   UNL     1      25.984  52.299  19.001  1.00  0.00    +0.095 C 
BRANCH  46  47
ATOM     47  C   UNL     1      26.841  53.229  18.105  1.00  0.00    +0.087 C 
BRANCH  47  48
ATOM     48  C   UNL     1      25.997  54.114  17.194  1.00  0.00    +0.263 C 
BRANCH  48  49
ATOM     49  N   UNL     1      26.232  55.595  17.420  1.00  0.00    -0.340 N 
ATOM     50  C   UNL     1      25.316  56.484  16.623  1.00  0.00    +0.332 C 
ATOM     51  C   UNL     1      26.304  56.006  18.865  1.00  0.00    +0.332 C 
ATOM     52  H   UNL     1      27.172  55.778  17.041  1.00  0.00    +0.347 HD
ENDBRANCH  48  49
ENDBRANCH  47  48
ENDBRANCH  46  47
BRANCH  46  53
ATOM     53  C   UNL     1      24.489  52.224  18.599  1.00  0.00    +0.100 C 
BRANCH  53  54
ATOM     54  S   UNL     1      24.073  50.830  17.484  1.00  0.00    -0.124 SA
BRANCH  54  55
ATOM     55  C   UNL     1      23.164  49.732  18.551  1.00  0.00    +0.007 A 
ATOM     56  C   UNL     1      22.315  50.203  19.557  1.00  0.00    +0.015 A 
ATOM     57  C   UNL     1      23.240  48.354  18.314  1.00  0.00    +0.015 A 
ATOM     58  C   UNL     1      21.580  49.307  20.338  1.00  0.00    +0.001 A 
ATOM     59  C   UNL     1      22.501  47.459  19.089  1.00  0.00    +0.001 A 
ATOM     60  C   UNL     1      21.675  47.935  20.106  1.00  0.00    +0.000 A 
ENDBRANCH  54  55
ENDBRANCH  53  54
ENDBRANCH  46  53
ENDBRANCH  44  46
ENDBRANCH  40  44
ENDBRANCH   1  35
TORSDOF 16
ENDMDL
MODEL 7
REMARK VINA RESULT:    -8.022      2.891      5.940
REMARK INTER + INTRA:         -16.674
REMARK INTER:                 -15.583
REMARK INTRA:                  -1.092
REMARK UNBOUND:                -1.150
REMARK SMILES C[NH+](C)CC[C@H](CSc1ccccc1)Nc1ccc(S(=O)(=O)NC(=O)c2ccc(N3CC[NH+](Cc4ccccc4-c4ccc(Cl)cc4)CC3)cc2)cc1[N+](=O)[O-]
REMARK SMILES IDX 20 1 21 2 22 3 23 4 24 5 25 6 26 8 29 9 28 10 50 11 27 12
REMARK SMILES IDX 51 13 30 14 32 15 33 16 31 17 48 18 49 19 34 21 35 22 36 23
REMARK SMILES IDX 40 24 37 25 39 26 38 27 41 28 42 29 47 30 43 31 46 32 44 33
REMARK SMILES IDX 45 34 19 35 18 36 52 37 17 38 53 39 16 40 54 41 55 42 56 43
REMARK SMILES IDX 15 44 6 46 5 47 4 48 2 49 1 50 3 51 7 53 8 54 9 55 10 56
REMARK SMILES IDX 14 57 11 58 13 59 12 60
REMARK H PARENT 23 7 33 20 15 45 2 52
ROOT
ATOM      1  S   UNL     1      19.181  46.390  20.423  1.00  0.00    +0.264 S 
ATOM      2  O   UNL     1      19.743  45.485  19.446  1.00  0.00    -0.201 OA
ATOM      3  O   UNL     1      18.493  45.893  21.595  1.00  0.00    -0.201 OA
ENDROOT
BRANCH   1   4
ATOM      4  N   UNL     1      20.393  47.368  21.008  1.00  0.00    -0.245 N 
ATOM      5  C   UNL     1      21.654  46.913  21.403  1.00  0.00    +0.264 C 
ATOM      6  O   UNL     1      22.045  45.776  21.193  1.00  0.00    -0.268 OA
ATOM      7  H   UNL     1      20.056  48.307  21.182  1.00  0.00    +0.183 HD
BRANCH   5   8
ATOM      8  C   UNL     1      22.522  47.907  22.100  1.00  0.00    +0.040 A 
ATOM      9  C   UNL     1      24.033  49.893  23.486  1.00  0.00    +0.037 A 
ATOM     10  C   UNL     1      24.508  49.298  22.307  1.00  0.00    +0.027 A 
ATOM     11  C   UNL     1      22.795  49.436  23.969  1.00  0.00    +0.027 A 
ATOM     12  C   UNL     1      23.766  48.324  21.617  1.00  0.00    +0.016 A 
ATOM     13  C   UNL     1      22.049  48.464  23.291  1.00  0.00    +0.016 A 
BRANCH   9  14
ATOM     14  N   UNL     1      24.742  50.872  24.202  1.00  0.00    -0.360 N 
ATOM     15  C   UNL     1      26.851  51.515  25.373  1.00  0.00    +0.284 C 
ATOM     16  N   UNL     1      26.081  52.535  26.199  1.00  0.00    -0.328 N 
ATOM     17  C   UNL     1      25.946  50.355  24.899  1.00  0.00    +0.178 C 
ATOM     18  C   UNL     1      24.867  53.034  25.425  1.00  0.00    +0.284 C 
ATOM     19  C   UNL     1      23.965  51.870  24.969  1.00  0.00    +0.178 C 
ATOM     20  H   UNL     1      26.708  53.342  26.299  1.00  0.00    +0.348 HD
BRANCH  16  21
ATOM     21  C   UNL     1      25.796  52.067  27.606  1.00  0.00    +0.299 C 
BRANCH  21  22
ATOM     22  C   UNL     1      24.328  52.009  27.962  1.00  0.00    +0.014 A 
ATOM     23  C   UNL     1      23.585  53.206  27.927  1.00  0.00    +0.010 A 
ATOM     24  C   UNL     1      23.681  50.803  28.330  1.00  0.00    -0.010 A 
ATOM     25  C   UNL     1      22.231  53.219  28.262  1.00  0.00    +0.001 A 
ATOM     26  C   UNL     1      22.315  50.844  28.664  1.00  0.00    +0.009 A 
ATOM     27  C   UNL     1      21.597  52.039  28.632  1.00  0.00    +0.001 A 
BRANCH  24  28
ATOM     28  C   UNL     1      24.379  49.511  28.385  1.00  0.00    -0.018 A 
ATOM     29  C   UNL     1      24.930  49.050  29.594  1.00  0.00    +0.010 A 
ATOM     30  C   UNL     1      24.509  48.709  27.241  1.00  0.00    +0.010 A 
ATOM     31  C   UNL     1      25.626  47.839  29.646  1.00  0.00    +0.021 A 
ATOM     32  C   UNL     1      25.204  47.498  27.292  1.00  0.00    +0.021 A 
ATOM     33  C   UNL     1      25.766  47.071  28.494  1.00  0.00    +0.041 A 
ATOM     34 Cl   UNL     1      26.638  45.592  28.553  1.00  0.00    -0.084 Cl
ENDBRANCH  24  28
ENDBRANCH  21  22
ENDBRANCH  16  21
ENDBRANCH   9  14
ENDBRANCH   5   8
ENDBRANCH   1   4
BRANCH   1  35
ATOM     35  C   UNL     1      18.066  47.506  19.617  1.00  0.00    +0.094 A 
ATOM     36  C   UNL     1      18.503  48.271  18.538  1.00  0.00    +0.025 A 
ATOM     37  C   UNL     1      16.743  47.578  20.039  1.00  0.00    +0.110 A 
ATOM     38  C   UNL     1      17.600  49.099  17.855  1.00  0.00    +0.034 A 
ATOM     39  C   UNL     1      15.849  48.424  19.355  1.00  0.00    +0.293 A 
ATOM     40  C   UNL     1      16.240  49.164  18.206  1.00  0.00    +0.113 A 
BRANCH  39  41
ATOM     41  N   UNL     1      14.483  48.511  19.887  1.00  0.00    +0.065 N 
ATOM     42  O   UNL     1      13.845  47.457  20.038  1.00  0.00    -0.258 OA
ATOM     43  O   UNL     1      14.045  49.641  20.148  1.00  0.00    -0.258 OA
ENDBRANCH  39  41
BRANCH  40  44
ATOM     44  N   UNL     1      15.355  50.026  17.531  1.00  0.00    -0.376 N 
ATOM     45  H   UNL     1      14.382  49.743  17.735  1.00  0.00    +0.161 HD
BRANCH  44  46
ATOM     46  C   UNL     1      15.507  50.329  16.092  1.00  0.00    +0.095 C 
BRANCH  46  47
ATOM     47  C   UNL     1      15.889  51.827  15.993  1.00  0.00    +0.087 C 
BRANCH  47  48
ATOM     48  C   UNL     1      16.045  52.303  14.552  1.00  0.00    +0.263 C 
BRANCH  48  49
ATOM     49  N   UNL     1      15.955  53.811  14.411  1.00  0.00    -0.340 N 
ATOM     50  C   UNL     1      17.272  54.471  14.104  1.00  0.00    +0.332 C 
ATOM     51  C   UNL     1      14.855  54.291  13.506  1.00  0.00    +0.332 C 
ATOM     52  H   UNL     1      15.702  54.152  15.349  1.00  0.00    +0.347 HD
ENDBRANCH  48  49
ENDBRANCH  47  48
ENDBRANCH  46  47
BRANCH  46  53
ATOM     53  C   UNL     1      14.249  49.935  15.276  1.00  0.00    +0.100 C 
BRANCH  53  54
ATOM     54  S   UNL     1      13.034  48.917  16.199  1.00  0.00    -0.124 SA
BRANCH  54  55
ATOM     55  C   UNL     1      12.208  48.022  14.902  1.00  0.00    +0.007 A 
ATOM     56  C   UNL     1      10.866  47.639  14.997  1.00  0.00    +0.015 A 
ATOM     57  C   UNL     1      12.905  47.770  13.714  1.00  0.00    +0.015 A 
ATOM     58  C   UNL     1      10.242  46.983  13.932  1.00  0.00    +0.001 A 
ATOM     59  C   UNL     1      12.280  47.121  12.648  1.00  0.00    +0.001 A 
ATOM     60  C   UNL     1      10.949  46.722  12.759  1.00  0.00    +0.000 A 
ENDBRANCH  54  55
ENDBRANCH  53  54
ENDBRANCH  46  53
ENDBRANCH  44  46
ENDBRANCH  40  44
ENDBRANCH   1  35
TORSDOF 16
ENDMDL
MODEL 8
REMARK VINA RESULT:    -7.921      5.991     10.416
REMARK INTER + INTRA:         -16.480
REMARK INTER:                 -14.241
REMARK INTRA:                  -2.239
REMARK UNBOUND:                -1.150
REMARK SMILES C[NH+](C)CC[C@H](CSc1ccccc1)Nc1ccc(S(=O)(=O)NC(=O)c2ccc(N3CC[NH+](Cc4ccccc4-c4ccc(Cl)cc4)CC3)cc2)cc1[N+](=O)[O-]
REMARK SMILES IDX 20 1 21 2 22 3 23 4 24 5 25 6 26 8 29 9 28 10 50 11 27 12
REMARK SMILES IDX 51 13 30 14 32 15 33 16 31 17 48 18 49 19 34 21 35 22 36 23
REMARK SMILES IDX 40 24 37 25 39 26 38 27 41 28 42 29 47 30 43 31 46 32 44 33
REMARK SMILES IDX 45 34 19 35 18 36 52 37 17 38 53 39 16 40 54 41 55 42 56 43
REMARK SMILES IDX 15 44 6 46 5 47 4 48 2 49 1 50 3 51 7 53 8 54 9 55 10 56
REMARK SMILES IDX 14 57 11 58 13 59 12 60
REMARK H PARENT 23 7 33 20 15 45 2 52
ROOT
ATOM      1  S   UNL     1      23.477  52.434  25.393  1.00  0.00    +0.264 S 
ATOM      2  O   UNL     1      22.585  53.415  25.966  1.00  0.00    -0.201 OA
ATOM      3  O   UNL     1      24.722  52.826  24.768  1.00  0.00    -0.201 OA
ENDROOT
BRANCH   1   4
ATOM      4  N   UNL     1      23.905  51.342  26.572  1.00  0.00    -0.245 N 
ATOM      5  C   UNL     1      24.796  51.614  27.613  1.00  0.00    +0.264 C 
ATOM      6  O   UNL     1      25.214  52.735  27.855  1.00  0.00    -0.268 OA
ATOM      7  H   UNL     1      23.556  50.415  26.360  1.00  0.00    +0.183 HD
BRANCH   5   8
ATOM      8  C   UNL     1      25.216  50.444  28.441  1.00  0.00    +0.040 A 
ATOM      9  C   UNL     1      26.149  48.177  29.903  1.00  0.00    +0.037 A 
ATOM     10  C   UNL     1      24.789  48.523  29.872  1.00  0.00    +0.027 A 
ATOM     11  C   UNL     1      27.031  49.022  29.209  1.00  0.00    +0.027 A 
ATOM     12  C   UNL     1      24.323  49.635  29.149  1.00  0.00    +0.016 A 
ATOM     13  C   UNL     1      26.577  50.134  28.488  1.00  0.00    +0.016 A 
BRANCH   9  14
ATOM     14  N   UNL     1      26.654  47.072  30.609  1.00  0.00    -0.360 N 
ATOM     15  C   UNL     1      27.296  44.660  30.571  1.00  0.00    +0.284 C 
ATOM     16  N   UNL     1      27.088  44.582  32.077  1.00  0.00    -0.328 N 
ATOM     17  C   UNL     1      26.438  45.771  29.927  1.00  0.00    +0.178 C 
ATOM     18  C   UNL     1      27.336  45.942  32.717  1.00  0.00    +0.284 C 
ATOM     19  C   UNL     1      26.464  47.040  32.076  1.00  0.00    +0.178 C 
ATOM     20  H   UNL     1      27.827  43.961  32.427  1.00  0.00    +0.348 HD
BRANCH  16  21
ATOM     21  C   UNL     1      25.787  43.920  32.463  1.00  0.00    +0.299 C 
BRANCH  21  22
ATOM     22  C   UNL     1      25.941  42.696  33.336  1.00  0.00    +0.014 A 
ATOM     23  C   UNL     1      26.972  42.688  34.298  1.00  0.00    +0.010 A 
ATOM     24  C   UNL     1      25.095  41.564  33.219  1.00  0.00    -0.010 A 
ATOM     25  C   UNL     1      27.174  41.581  35.121  1.00  0.00    +0.001 A 
ATOM     26  C   UNL     1      25.323  40.461  34.061  1.00  0.00    +0.009 A 
ATOM     27  C   UNL     1      26.352  40.467  35.001  1.00  0.00    +0.001 A 
BRANCH  24  28
ATOM     28  C   UNL     1      23.994  41.493  32.248  1.00  0.00    -0.018 A 
ATOM     29  C   UNL     1      24.255  41.569  30.868  1.00  0.00    +0.010 A 
ATOM     30  C   UNL     1      22.664  41.345  32.672  1.00  0.00    +0.010 A 
ATOM     31  C   UNL     1      23.210  41.537  29.941  1.00  0.00    +0.021 A 
ATOM     32  C   UNL     1      21.619  41.312  31.745  1.00  0.00    +0.021 A 
ATOM     33  C   UNL     1      21.895  41.415  30.384  1.00  0.00    +0.041 A 
ATOM     34 Cl   UNL     1      20.608  41.396  29.245  1.00  0.00    -0.084 Cl
ENDBRANCH  24  28
ENDBRANCH  21  22
ENDBRANCH  16  21
ENDBRANCH   9  14
ENDBRANCH   5   8
ENDBRANCH   1   4
BRANCH   1  35
ATOM     35  C   UNL     1      22.595  51.467  24.198  1.00  0.00    +0.094 A 
ATOM     36  C   UNL     1      21.657  52.072  23.365  1.00  0.00    +0.025 A 
ATOM     37  C   UNL     1      22.881  50.111  24.066  1.00  0.00    +0.110 A 
ATOM     38  C   UNL     1      21.014  51.320  22.372  1.00  0.00    +0.034 A 
ATOM     39  C   UNL     1      22.218  49.364  23.074  1.00  0.00    +0.293 A 
ATOM     40  C   UNL     1      21.308  49.961  22.160  1.00  0.00    +0.113 A 
BRANCH  39  41
ATOM     41  N   UNL     1      22.509  47.925  23.026  1.00  0.00    +0.065 N 
ATOM     42  O   UNL     1      21.552  47.135  23.009  1.00  0.00    -0.258 OA
ATOM     43  O   UNL     1      23.701  47.585  23.013  1.00  0.00    -0.258 OA
ENDBRANCH  39  41
BRANCH  40  44
ATOM     44  N   UNL     1      20.629  49.214  21.179  1.00  0.00    -0.376 N 
ATOM     45  H   UNL     1      20.174  48.400  21.626  1.00  0.00    +0.161 HD
BRANCH  44  46
ATOM     46  C   UNL     1      21.282  48.804  19.919  1.00  0.00    +0.095 C 
BRANCH  46  47
ATOM     47  C   UNL     1      21.720  50.107  19.204  1.00  0.00    +0.087 C 
BRANCH  47  48
ATOM     48  C   UNL     1      22.884  49.891  18.242  1.00  0.00    +0.263 C 
BRANCH  48  49
ATOM     49  N   UNL     1      23.290  51.153  17.505  1.00  0.00    -0.340 N 
ATOM     50  C   UNL     1      22.928  52.421  18.229  1.00  0.00    +0.332 C 
ATOM     51  C   UNL     1      24.712  51.165  17.017  1.00  0.00    +0.332 C 
ATOM     52  H   UNL     1      22.712  51.162  16.653  1.00  0.00    +0.347 HD
ENDBRANCH  48  49
ENDBRANCH  47  48
ENDBRANCH  46  47
BRANCH  46  53
ATOM     53  C   UNL     1      20.377  47.880  19.065  1.00  0.00    +0.100 C 
BRANCH  53  54
ATOM     54  S   UNL     1      18.782  47.440  19.855  1.00  0.00    -0.124 SA
BRANCH  54  55
ATOM     55  C   UNL     1      17.589  48.235  18.800  1.00  0.00    +0.007 A 
ATOM     56  C   UNL     1      17.947  49.232  17.887  1.00  0.00    +0.015 A 
ATOM     57  C   UNL     1      16.264  47.782  18.829  1.00  0.00    +0.015 A 
ATOM     58  C   UNL     1      16.986  49.792  17.041  1.00  0.00    +0.001 A 
ATOM     59  C   UNL     1      15.306  48.337  17.979  1.00  0.00    +0.001 A 
ATOM     60  C   UNL     1      15.666  49.347  17.088  1.00  0.00    +0.000 A 
ENDBRANCH  54  55
ENDBRANCH  53  54
ENDBRANCH  46  53
ENDBRANCH  44  46
ENDBRANCH  40  44
ENDBRANCH   1  35
TORSDOF 16
ENDMDL
MODEL 9
REMARK VINA RESULT:    -7.794      6.679      9.401
REMARK INTER + INTRA:         -16.234
REMARK INTER:                 -14.616
REMARK INTRA:                  -1.618
REMARK UNBOUND:                -1.150
REMARK SMILES C[NH+](C)CC[C@H](CSc1ccccc1)Nc1ccc(S(=O)(=O)NC(=O)c2ccc(N3CC[NH+](Cc4ccccc4-c4ccc(Cl)cc4)CC3)cc2)cc1[N+](=O)[O-]
REMARK SMILES IDX 20 1 21 2 22 3 23 4 24 5 25 6 26 8 29 9 28 10 50 11 27 12
REMARK SMILES IDX 51 13 30 14 32 15 33 16 31 17 48 18 49 19 34 21 35 22 36 23
REMARK SMILES IDX 40 24 37 25 39 26 38 27 41 28 42 29 47 30 43 31 46 32 44 33
REMARK SMILES IDX 45 34 19 35 18 36 52 37 17 38 53 39 16 40 54 41 55 42 56 43
REMARK SMILES IDX 15 44 6 46 5 47 4 48 2 49 1 50 3 51 7 53 8 54 9 55 10 56
REMARK SMILES IDX 14 57 11 58 13 59 12 60
REMARK H PARENT 23 7 33 20 15 45 2 52
ROOT
ATOM      1  S   UNL     1      21.547  52.677  24.073  1.00  0.00    +0.264 S 
ATOM      2  O   UNL     1      20.307  52.012  23.748  1.00  0.00    -0.201 OA
ATOM      3  O   UNL     1      21.559  54.015  24.625  1.00  0.00    -0.201 OA
ENDROOT
BRANCH   1   4
ATOM      4  N   UNL     1      22.385  51.746  25.168  1.00  0.00    -0.245 N 
ATOM      5  C   UNL     1      23.372  52.235  26.028  1.00  0.00    +0.264 C 
ATOM      6  O   UNL     1      23.592  53.426  26.178  1.00  0.00    -0.268 OA
ATOM      7  H   UNL     1      22.198  50.760  25.031  1.00  0.00    +0.183 HD
BRANCH   5   8
ATOM      8  C   UNL     1      24.156  51.210  26.779  1.00  0.00    +0.040 A 
ATOM      9  C   UNL     1      25.504  49.150  28.223  1.00  0.00    +0.037 A 
ATOM     10  C   UNL     1      25.842  50.502  28.383  1.00  0.00    +0.027 A 
ATOM     11  C   UNL     1      24.494  48.858  27.291  1.00  0.00    +0.027 A 
ATOM     12  C   UNL     1      25.178  51.521  27.679  1.00  0.00    +0.016 A 
ATOM     13  C   UNL     1      23.828  49.866  26.581  1.00  0.00    +0.016 A 
BRANCH   9  14
ATOM     14  N   UNL     1      26.140  48.102  28.911  1.00  0.00    -0.360 N 
ATOM     15  C   UNL     1      26.857  45.711  28.915  1.00  0.00    +0.284 C 
ATOM     16  N   UNL     1      26.861  45.715  30.437  1.00  0.00    -0.328 N 
ATOM     17  C   UNL     1      25.879  46.758  28.337  1.00  0.00    +0.178 C 
ATOM     18  C   UNL     1      27.146  47.117  30.960  1.00  0.00    +0.284 C 
ATOM     19  C   UNL     1      26.156  48.151  30.389  1.00  0.00    +0.178 C 
ATOM     20  H   UNL     1      27.663  45.137  30.713  1.00  0.00    +0.348 HD
BRANCH  16  21
ATOM     21  C   UNL     1      25.650  45.041  31.036  1.00  0.00    +0.299 C 
BRANCH  21  22
ATOM     22  C   UNL     1      25.946  44.174  32.238  1.00  0.00    +0.014 A 
ATOM     23  C   UNL     1      27.005  44.552  33.089  1.00  0.00    +0.010 A 
ATOM     24  C   UNL     1      25.205  43.003  32.533  1.00  0.00    -0.010 A 
ATOM     25  C   UNL     1      27.336  43.783  34.204  1.00  0.00    +0.001 A 
ATOM     26  C   UNL     1      25.562  42.245  33.663  1.00  0.00    +0.009 A 
ATOM     27  C   UNL     1      26.616  42.630  34.489  1.00  0.00    +0.001 A 
BRANCH  24  28
ATOM     28  C   UNL     1      24.083  42.542  31.703  1.00  0.00    -0.018 A 
ATOM     29  C   UNL     1      24.290  41.581  30.697  1.00  0.00    +0.010 A 
ATOM     30  C   UNL     1      22.787  43.044  31.895  1.00  0.00    +0.010 A 
ATOM     31  C   UNL     1      23.235  41.164  29.880  1.00  0.00    +0.021 A 
ATOM     32  C   UNL     1      21.731  42.626  31.079  1.00  0.00    +0.021 A 
ATOM     33  C   UNL     1      21.961  41.693  30.071  1.00  0.00    +0.041 A 
ATOM     34 Cl   UNL     1      20.668  41.196  29.055  1.00  0.00    -0.084 Cl
ENDBRANCH  24  28
ENDBRANCH  21  22
ENDBRANCH  16  21
ENDBRANCH   9  14
ENDBRANCH   5   8
ENDBRANCH   1   4
BRANCH   1  35
ATOM     35  C   UNL     1      22.588  52.712  22.640  1.00  0.00    +0.094 A 
ATOM     36  C   UNL     1      23.837  53.326  22.699  1.00  0.00    +0.025 A 
ATOM     37  C   UNL     1      22.168  52.084  21.471  1.00  0.00    +0.110 A 
ATOM     38  C   UNL     1      24.689  53.289  21.586  1.00  0.00    +0.034 A 
ATOM     39  C   UNL     1      23.027  52.067  20.355  1.00  0.00    +0.293 A 
ATOM     40  C   UNL     1      24.336  52.618  20.401  1.00  0.00    +0.113 A 
BRANCH  39  41
ATOM     41  N   UNL     1      22.505  51.449  19.129  1.00  0.00    +0.065 N 
ATOM     42  O   UNL     1      22.393  50.214  19.098  1.00  0.00    -0.258 OA
ATOM     43  O   UNL     1      22.213  52.206  18.191  1.00  0.00    -0.258 OA
ENDBRANCH  39  41
BRANCH  40  44
ATOM     44  N   UNL     1      25.191  52.620  19.282  1.00  0.00    -0.376 N 
ATOM     45  H   UNL     1      26.152  52.393  19.588  1.00  0.00    +0.161 HD
BRANCH  44  46
ATOM     46  C   UNL     1      25.215  53.742  18.321  1.00  0.00    +0.095 C 
BRANCH  46  47
ATOM     47  C   UNL     1      26.651  53.798  17.742  1.00  0.00    +0.087 C 
BRANCH  47  48
ATOM     48  C   UNL     1      26.969  52.616  16.832  1.00  0.00    +0.263 C 
BRANCH  48  49
ATOM     49  N   UNL     1      26.374  52.757  15.444  1.00  0.00    -0.340 N 
ATOM     50  C   UNL     1      25.093  51.992  15.253  1.00  0.00    +0.332 C 
ATOM     51  C   UNL     1      26.269  54.172  14.948  1.00  0.00    +0.332 C 
ATOM     52  H   UNL     1      27.050  52.300  14.816  1.00  0.00    +0.347 HD
ENDBRANCH  48  49
ENDBRANCH  47  48
ENDBRANCH  46  47
BRANCH  46  53
ATOM     53  C   UNL     1      24.730  55.069  18.957  1.00  0.00    +0.100 C 
BRANCH  53  54
ATOM     54  S   UNL     1      25.820  56.507  18.635  1.00  0.00    -0.124 SA
BRANCH  54  55
ATOM     55  C   UNL     1      25.091  57.235  17.184  1.00  0.00    +0.007 A 
ATOM     56  C   UNL     1      23.759  57.008  16.824  1.00  0.00    +0.015 A 
ATOM     57  C   UNL     1      25.857  58.132  16.429  1.00  0.00    +0.015 A 
ATOM     58  C   UNL     1      23.212  57.642  15.705  1.00  0.00    +0.001 A 
ATOM     59  C   UNL     1      25.309  58.770  15.315  1.00  0.00    +0.001 A 
ATOM     60  C   UNL     1      23.987  58.521  14.949  1.00  0.00    +0.000 A 
ENDBRANCH  54  55
ENDBRANCH  53  54
ENDBRANCH  46  53
ENDBRANCH  44  46
ENDBRANCH  40  44
ENDBRANCH   1  35
TORSDOF 16
ENDMDL
