MODEL 1
REMARK VINA RESULT:   -12.913      0.000      0.000
REMARK INTER + INTRA:         -18.738
REMARK INTER:                 -18.198
REMARK INTRA:                  -0.540
REMARK UNBOUND:                -0.540
REMARK SMILES Cc1ccc(NC(=O)c2ccc(C[N@H+]3CC[N@@H+](C)CC3)cc2)cc1Nc1nccc(-c2cccnc2)n1
REMARK SMILES IDX 7 1 6 2 8 3 9 5 12 6 11 7 21 8 10 9 22 10 13 11 14 12 19 13
REMARK SMILES IDX 17 14 20 15 16 16 15 17 18 18 5 21 23 22 4 23 24 24 3 25
REMARK SMILES IDX 2 26 1 27 25 28 26 30 27 31 37 32 28 33 30 34 29 35 31 36
REMARK SMILES IDX 36 37 32 38 35 39 33 40 34 41
REMARK H PARENT 6 4 17 19 14 20 25 29
ROOT
ATOM      1  C   UNL     1      15.780  51.864  15.630  1.00  0.00    +0.255 C 
ATOM      2  N   UNL     1      16.619  51.865  14.530  1.00  0.00    -0.322 N 
ATOM      3  O   UNL     1      14.967  52.729  15.930  1.00  0.00    -0.269 OA
ATOM      4  H   UNL     1      17.331  51.155  14.466  1.00  0.00    +0.170 HD
ENDROOT
BRANCH   1   5
ATOM      5  C   UNL     1      15.919  50.708  16.571  1.00  0.00    +0.040 A 
ATOM      6  C   UNL     1      16.346  48.563  18.365  1.00  0.00    +0.006 A 
ATOM      7  C   UNL     1      15.057  49.078  18.153  1.00  0.00    +0.010 A 
ATOM      8  C   UNL     1      17.424  49.148  17.686  1.00  0.00    +0.010 A 
ATOM      9  C   UNL     1      14.845  50.147  17.270  1.00  0.00    +0.014 A 
ATOM     10  C   UNL     1      17.208  50.204  16.797  1.00  0.00    +0.014 A 
BRANCH   6  11
ATOM     11  C   UNL     1      16.575  47.423  19.320  1.00  0.00    +0.299 C 
BRANCH  11  12
ATOM     12  N   UNL     1      17.901  47.540  20.077  1.00  0.00    -0.322 N 
ATOM     13  C   UNL     1      19.002  47.723  22.361  1.00  0.00    +0.324 C 
ATOM     14  N   UNL     1      20.018  46.662  21.956  1.00  0.00    -0.328 N 
ATOM     15  C   UNL     1      17.667  47.581  21.586  1.00  0.00    +0.324 C 
ATOM     16  C   UNL     1      20.233  46.599  20.447  1.00  0.00    +0.324 C 
ATOM     17  C   UNL     1      18.900  46.456  19.670  1.00  0.00    +0.324 C 
ATOM     18  C   UNL     1      19.782  45.312  22.595  1.00  0.00    +0.333 C 
ATOM     19  H   UNL     1      20.922  46.969  22.356  1.00  0.00    +0.348 HD
ATOM     20  H   UNL     1      18.281  48.451  19.783  1.00  0.00    +0.348 HD
ENDBRANCH  11  12
ENDBRANCH   6  11
ENDBRANCH   1   5
BRANCH   2  21
ATOM     21  C   UNL     1      16.655  52.825  13.491  1.00  0.00    +0.043 A 
ATOM     22  C   UNL     1      15.788  53.915  13.399  1.00  0.00    +0.052 A 
ATOM     23  C   UNL     1      17.614  52.646  12.491  1.00  0.00    +0.026 A 
ATOM     24  C   UNL     1      15.875  54.845  12.343  1.00  0.00    +0.046 A 
ATOM     25  C   UNL     1      17.712  53.553  11.434  1.00  0.00    +0.008 A 
ATOM     26  C   UNL     1      16.860  54.665  11.356  1.00  0.00    -0.027 A 
ATOM     27  C   UNL     1      17.035  55.616  10.202  1.00  0.00    +0.046 C 
BRANCH  24  28
ATOM     28  N   UNL     1      14.928  55.886  12.294  1.00  0.00    -0.324 N 
ATOM     29  H   UNL     1      14.373  55.914  11.448  1.00  0.00    +0.170 HD
BRANCH  28  30
ATOM     30  C   UNL     1      15.148  57.227  12.634  1.00  0.00    +0.227 A 
ATOM     31  N   UNL     1      16.330  57.648  13.103  1.00  0.00    -0.221 NA
ATOM     32  N   UNL     1      14.101  58.043  12.432  1.00  0.00    -0.213 NA
ATOM     33  C   UNL     1      16.439  58.952  13.403  1.00  0.00    +0.117 A 
ATOM     34  C   UNL     1      14.233  59.352  12.747  1.00  0.00    +0.077 A 
ATOM     35  C   UNL     1      15.417  59.855  13.247  1.00  0.00    +0.049 A 
BRANCH  34  36
ATOM     36  C   UNL     1      13.043  60.187  12.503  1.00  0.00    +0.019 A 
ATOM     37  C   UNL     1      11.963  59.707  11.758  1.00  0.00    +0.121 A 
ATOM     38  C   UNL     1      12.907  61.495  12.993  1.00  0.00    +0.013 A 
ATOM     39  N   UNL     1      10.835  60.405  11.470  1.00  0.00    -0.264 NA
ATOM     40  C   UNL     1      11.757  62.239  12.723  1.00  0.00    +0.021 A 
ATOM     41  C   UNL     1      10.758  61.657  11.962  1.00  0.00    +0.111 A 
ENDBRANCH  34  36
ENDBRANCH  28  30
ENDBRANCH  24  28
ENDBRANCH   2  21
TORSDOF 7
ENDMDL
MODEL 2
REMARK VINA RESULT:   -11.851      6.173     12.233
REMARK INTER + INTRA:         -17.241
REMARK INTER:                 -16.359
REMARK INTRA:                  -0.882
REMARK UNBOUND:                -0.540
REMARK SMILES Cc1ccc(NC(=O)c2ccc(C[N@H+]3CC[N@@H+](C)CC3)cc2)cc1Nc1nccc(-c2cccnc2)n1
REMARK SMILES IDX 7 1 6 2 8 3 9 5 12 6 11 7 21 8 10 9 22 10 13 11 14 12 19 13
REMARK SMILES IDX 17 14 20 15 16 16 15 17 18 18 5 21 23 22 4 23 24 24 3 25
REMARK SMILES IDX 2 26 1 27 25 28 26 30 27 31 37 32 28 33 30 34 29 35 31 36
REMARK SMILES IDX 36 37 32 38 35 39 33 40 34 41
REMARK H PARENT 6 4 17 19 14 20 25 29
ROOT
ATOM      1  C   UNL     1      12.293  62.456  12.917  1.00  0.00    +0.255 C 
ATOM      2  N   UNL     1      12.404  63.282  11.814  1.00  0.00    -0.322 N 
ATOM      3  O   UNL     1      11.954  62.786  14.047  1.00  0.00    -0.269 OA
ATOM      4  H   UNL     1      12.816  62.910  10.972  1.00  0.00    +0.170 HD
ENDROOT
BRANCH   1   5
ATOM      5  C   UNL     1      12.676  61.023  12.716  1.00  0.00    +0.040 A 
ATOM      6  C   UNL     1      13.315  58.318  12.191  1.00  0.00    +0.006 A 
ATOM      7  C   UNL     1      14.070  59.070  13.104  1.00  0.00    +0.010 A 
ATOM      8  C   UNL     1      12.248  58.939  11.526  1.00  0.00    +0.010 A 
ATOM      9  C   UNL     1      13.759  60.414  13.360  1.00  0.00    +0.014 A 
ATOM     10  C   UNL     1      11.933  60.274  11.792  1.00  0.00    +0.014 A 
BRANCH   6  11
ATOM     11  C   UNL     1      13.654  56.879  11.909  1.00  0.00    +0.299 C 
BRANCH  11  12
ATOM     12  N   UNL     1      14.970  56.441  12.557  1.00  0.00    -0.322 N 
ATOM     13  C   UNL     1      16.169  54.594  13.826  1.00  0.00    +0.324 C 
ATOM     14  N   UNL     1      17.369  54.735  12.898  1.00  0.00    -0.328 N 
ATOM     15  C   UNL     1      14.848  55.038  13.147  1.00  0.00    +0.324 C 
ATOM     16  C   UNL     1      17.477  56.127  12.283  1.00  0.00    +0.324 C 
ATOM     17  C   UNL     1      16.159  56.572  11.603  1.00  0.00    +0.324 C 
ATOM     18  C   UNL     1      17.500  53.613  11.893  1.00  0.00    +0.333 C 
ATOM     19  H   UNL     1      18.205  54.626  13.498  1.00  0.00    +0.348 HD
ATOM     20  H   UNL     1      15.106  57.107  13.330  1.00  0.00    +0.348 HD
ENDBRANCH  11  12
ENDBRANCH   6  11
ENDBRANCH   1   5
BRANCH   2  21
ATOM     21  C   UNL     1      12.075  64.656  11.746  1.00  0.00    +0.043 A 
ATOM     22  C   UNL     1      10.906  65.211  12.271  1.00  0.00    +0.052 A 
ATOM     23  C   UNL     1      12.980  65.498  11.093  1.00  0.00    +0.026 A 
ATOM     24  C   UNL     1      10.634  66.591  12.179  1.00  0.00    +0.046 A 
ATOM     25  C   UNL     1      12.726  66.866  10.988  1.00  0.00    +0.008 A 
ATOM     26  C   UNL     1      11.564  67.429  11.540  1.00  0.00    -0.027 A 
ATOM     27  C   UNL     1      11.363  68.915  11.410  1.00  0.00    +0.046 C 
BRANCH  24  28
ATOM     28  N   UNL     1       9.407  67.061  12.686  1.00  0.00    -0.324 N 
ATOM     29  H   UNL     1       8.908  67.690  12.069  1.00  0.00    +0.170 HD
BRANCH  28  30
ATOM     30  C   UNL     1       9.173  67.550  13.978  1.00  0.00    +0.227 A 
ATOM     31  N   UNL     1      10.158  67.651  14.880  1.00  0.00    -0.221 NA
ATOM     32  N   UNL     1       7.907  67.925  14.223  1.00  0.00    -0.213 NA
ATOM     33  C   UNL     1       9.832  68.128  16.092  1.00  0.00    +0.117 A 
ATOM     34  C   UNL     1       7.601  68.397  15.453  1.00  0.00    +0.077 A 
ATOM     35  C   UNL     1       8.562  68.517  16.437  1.00  0.00    +0.049 A 
BRANCH  34  36
ATOM     36  C   UNL     1       6.193  68.784  15.652  1.00  0.00    +0.019 A 
ATOM     37  C   UNL     1       5.668  68.966  16.934  1.00  0.00    +0.121 A 
ATOM     38  C   UNL     1       5.295  68.999  14.594  1.00  0.00    +0.013 A 
ATOM     39  N   UNL     1       4.384  69.307  17.216  1.00  0.00    -0.264 NA
ATOM     40  C   UNL     1       3.971  69.358  14.847  1.00  0.00    +0.021 A 
ATOM     41  C   UNL     1       3.565  69.497  16.163  1.00  0.00    +0.111 A 
ENDBRANCH  34  36
ENDBRANCH  28  30
ENDBRANCH  24  28
ENDBRANCH   2  21
TORSDOF 7
ENDMDL
MODEL 3
REMARK VINA RESULT:   -11.342      6.279     12.241
REMARK INTER + INTRA:         -16.524
REMARK INTER:                 -15.624
REMARK INTRA:                  -0.900
REMARK UNBOUND:                -0.540
REMARK SMILES Cc1ccc(NC(=O)c2ccc(C[N@H+]3CC[N@@H+](C)CC3)cc2)cc1Nc1nccc(-c2cccnc2)n1
REMARK SMILES IDX 7 1 6 2 8 3 9 5 12 6 11 7 21 8 10 9 22 10 13 11 14 12 19 13
REMARK SMILES IDX 17 14 20 15 16 16 15 17 18 18 5 21 23 22 4 23 24 24 3 25
REMARK SMILES IDX 2 26 1 27 25 28 26 30 27 31 37 32 28 33 30 34 29 35 31 36
REMARK SMILES IDX 36 37 32 38 35 39 33 40 34 41
REMARK H PARENT 6 4 17 19 14 20 25 29
ROOT
ATOM      1  C   UNL     1      12.168  62.544  13.014  1.00  0.00    +0.255 C 
ATOM      2  N   UNL     1      12.400  63.485  12.028  1.00  0.00    -0.322 N 
ATOM      3  O   UNL     1      11.772  62.761  14.154  1.00  0.00    -0.269 OA
ATOM      4  H   UNL     1      12.846  63.189  11.174  1.00  0.00    +0.170 HD
ENDROOT
BRANCH   1   5
ATOM      5  C   UNL     1      12.479  61.122  12.664  1.00  0.00    +0.040 A 
ATOM      6  C   UNL     1      13.141  58.420  12.153  1.00  0.00    +0.006 A 
ATOM      7  C   UNL     1      12.117  59.058  11.434  1.00  0.00    +0.010 A 
ATOM      8  C   UNL     1      13.817  59.143  13.147  1.00  0.00    +0.010 A 
ATOM      9  C   UNL     1      11.783  60.396  11.692  1.00  0.00    +0.014 A 
ATOM     10  C   UNL     1      13.490  60.479  13.392  1.00  0.00    +0.014 A 
BRANCH   6  11
ATOM     11  C   UNL     1      13.494  56.982  11.883  1.00  0.00    +0.299 C 
BRANCH  11  12
ATOM     12  N   UNL     1      14.824  56.568  12.519  1.00  0.00    -0.322 N 
ATOM     13  C   UNL     1      16.075  54.732  13.754  1.00  0.00    +0.324 C 
ATOM     14  N   UNL     1      17.268  54.921  12.824  1.00  0.00    -0.328 N 
ATOM     15  C   UNL     1      14.741  55.153  13.086  1.00  0.00    +0.324 C 
ATOM     16  C   UNL     1      17.338  56.325  12.234  1.00  0.00    +0.324 C 
ATOM     17  C   UNL     1      16.006  56.748  11.565  1.00  0.00    +0.324 C 
ATOM     18  C   UNL     1      17.426  53.820  11.800  1.00  0.00    +0.333 C 
ATOM     19  H   UNL     1      18.109  54.824  13.420  1.00  0.00    +0.348 HD
ATOM     20  H   UNL     1      14.945  57.225  13.304  1.00  0.00    +0.348 HD
ENDBRANCH  11  12
ENDBRANCH   6  11
ENDBRANCH   1   5
BRANCH   2  21
ATOM     21  C   UNL     1      12.157  64.877  12.109  1.00  0.00    +0.043 A 
ATOM     22  C   UNL     1      11.241  65.561  11.308  1.00  0.00    +0.052 A 
ATOM     23  C   UNL     1      12.902  65.602  13.043  1.00  0.00    +0.026 A 
ATOM     24  C   UNL     1      11.036  66.950  11.438  1.00  0.00    +0.046 A 
ATOM     25  C   UNL     1      12.717  66.978  13.183  1.00  0.00    +0.008 A 
ATOM     26  C   UNL     1      11.776  67.663  12.398  1.00  0.00    -0.027 A 
ATOM     27  C   UNL     1      11.610  69.143  12.615  1.00  0.00    +0.046 C 
BRANCH  24  28
ATOM     28  N   UNL     1      10.133  67.573  10.555  1.00  0.00    -0.324 N 
ATOM     29  H   UNL     1      10.502  68.387  10.078  1.00  0.00    +0.170 HD
BRANCH  28  30
ATOM     30  C   UNL     1       8.790  67.876  10.815  1.00  0.00    +0.227 A 
ATOM     31  N   UNL     1       7.905  68.051   9.825  1.00  0.00    -0.221 NA
ATOM     32  N   UNL     1       8.466  67.950  12.116  1.00  0.00    -0.213 NA
ATOM     33  C   UNL     1       6.642  68.341  10.178  1.00  0.00    +0.117 A 
ATOM     34  C   UNL     1       7.189  68.249  12.447  1.00  0.00    +0.077 A 
ATOM     35  C   UNL     1       6.226  68.456  11.480  1.00  0.00    +0.049 A 
BRANCH  34  36
ATOM     36  C   UNL     1       6.907  68.319  13.892  1.00  0.00    +0.019 A 
ATOM     37  C   UNL     1       7.943  68.384  14.828  1.00  0.00    +0.121 A 
ATOM     38  C   UNL     1       5.609  68.329  14.424  1.00  0.00    +0.013 A 
ATOM     39  N   UNL     1       7.782  68.436  16.175  1.00  0.00    -0.264 NA
ATOM     40  C   UNL     1       5.406  68.390  15.803  1.00  0.00    +0.021 A 
ATOM     41  C   UNL     1       6.514  68.439  16.631  1.00  0.00    +0.111 A 
ENDBRANCH  34  36
ENDBRANCH  28  30
ENDBRANCH  24  28
ENDBRANCH   2  21
TORSDOF 7
ENDMDL
MODEL 4
REMARK VINA RESULT:   -11.046      2.244     13.320
REMARK INTER + INTRA:         -16.107
REMARK INTER:                 -15.659
REMARK INTRA:                  -0.447
REMARK UNBOUND:                -0.540
REMARK SMILES Cc1ccc(NC(=O)c2ccc(C[N@H+]3CC[N@@H+](C)CC3)cc2)cc1Nc1nccc(-c2cccnc2)n1
REMARK SMILES IDX 7 1 6 2 8 3 9 5 12 6 11 7 21 8 10 9 22 10 13 11 14 12 19 13
REMARK SMILES IDX 17 14 20 15 16 16 15 17 18 18 5 21 23 22 4 23 24 24 3 25
REMARK SMILES IDX 2 26 1 27 25 28 26 30 27 31 37 32 28 33 30 34 29 35 31 36
REMARK SMILES IDX 36 37 32 38 35 39 33 40 34 41
REMARK H PARENT 6 4 17 19 14 20 25 29
ROOT
ATOM      1  C   UNL     1      15.151  58.064  12.726  1.00  0.00    +0.255 C 
ATOM      2  N   UNL     1      14.831  56.733  12.529  1.00  0.00    -0.322 N 
ATOM      3  O   UNL     1      16.244  58.513  13.051  1.00  0.00    -0.269 OA
ATOM      4  H   UNL     1      13.865  56.485  12.387  1.00  0.00    +0.170 HD
ENDROOT
BRANCH   1   5
ATOM      5  C   UNL     1      14.033  59.047  12.572  1.00  0.00    +0.040 A 
ATOM      6  C   UNL     1      12.014  61.017  12.366  1.00  0.00    +0.006 A 
ATOM      7  C   UNL     1      12.039  59.919  11.491  1.00  0.00    +0.010 A 
ATOM      8  C   UNL     1      13.023  61.131  13.333  1.00  0.00    +0.010 A 
ATOM      9  C   UNL     1      13.045  58.946  11.587  1.00  0.00    +0.014 A 
ATOM     10  C   UNL     1      14.016  60.152  13.434  1.00  0.00    +0.014 A 
BRANCH   6  11
ATOM     11  C   UNL     1      10.941  62.067  12.257  1.00  0.00    +0.299 C 
BRANCH  11  12
ATOM     12  N   UNL     1      11.505  63.467  11.999  1.00  0.00    -0.322 N 
ATOM     13  C   UNL     1      10.969  65.840  11.262  1.00  0.00    +0.324 C 
ATOM     14  N   UNL     1      11.775  66.385  12.435  1.00  0.00    -0.328 N 
ATOM     15  C   UNL     1      10.404  64.425  11.549  1.00  0.00    +0.324 C 
ATOM     16  C   UNL     1      12.857  65.419  12.906  1.00  0.00    +0.324 C 
ATOM     17  C   UNL     1      12.295  64.004  13.194  1.00  0.00    +0.324 C 
ATOM     18  C   UNL     1      10.926  66.944  13.555  1.00  0.00    +0.333 C 
ATOM     19  H   UNL     1      12.277  67.214  12.071  1.00  0.00    +0.348 HD
ATOM     20  H   UNL     1      12.161  63.336  11.216  1.00  0.00    +0.348 HD
ENDBRANCH  11  12
ENDBRANCH   6  11
ENDBRANCH   1   5
BRANCH   2  21
ATOM     21  C   UNL     1      15.715  55.629  12.587  1.00  0.00    +0.043 A 
ATOM     22  C   UNL     1      15.856  54.795  13.698  1.00  0.00    +0.052 A 
ATOM     23  C   UNL     1      16.503  55.382  11.460  1.00  0.00    +0.026 A 
ATOM     24  C   UNL     1      16.749  53.704  13.696  1.00  0.00    +0.046 A 
ATOM     25  C   UNL     1      17.397  54.310  11.442  1.00  0.00    +0.008 A 
ATOM     26  C   UNL     1      17.519  53.454  12.547  1.00  0.00    -0.027 A 
ATOM     27  C   UNL     1      18.486  52.304  12.453  1.00  0.00    +0.046 C 
BRANCH  24  28
ATOM     28  N   UNL     1      16.872  52.945  14.876  1.00  0.00    -0.324 N 
ATOM     29  H   UNL     1      17.823  52.709  15.131  1.00  0.00    +0.170 HD
BRANCH  28  30
ATOM     30  C   UNL     1      16.109  51.822  15.225  1.00  0.00    +0.227 A 
ATOM     31  N   UNL     1      14.948  51.545  14.617  1.00  0.00    -0.221 NA
ATOM     32  N   UNL     1      16.642  51.050  16.186  1.00  0.00    -0.213 NA
ATOM     33  C   UNL     1      14.291  50.448  15.026  1.00  0.00    +0.117 A 
ATOM     34  C   UNL     1      15.958  49.953  16.585  1.00  0.00    +0.077 A 
ATOM     35  C   UNL     1      14.749  49.612  16.013  1.00  0.00    +0.049 A 
BRANCH  34  36
ATOM     36  C   UNL     1      16.600  49.156  17.646  1.00  0.00    +0.019 A 
ATOM     37  C   UNL     1      17.978  49.224  17.867  1.00  0.00    +0.121 A 
ATOM     38  C   UNL     1      15.893  48.292  18.496  1.00  0.00    +0.013 A 
ATOM     39  N   UNL     1      18.659  48.518  18.807  1.00  0.00    -0.264 NA
ATOM     40  C   UNL     1      16.559  47.559  19.479  1.00  0.00    +0.021 A 
ATOM     41  C   UNL     1      17.930  47.702  19.593  1.00  0.00    +0.111 A 
ENDBRANCH  34  36
ENDBRANCH  28  30
ENDBRANCH  24  28
ENDBRANCH   2  21
TORSDOF 7
ENDMDL
MODEL 5
REMARK VINA RESULT:   -10.441      6.033     11.778
REMARK INTER + INTRA:         -15.254
REMARK INTER:                 -14.458
REMARK INTRA:                  -0.797
REMARK UNBOUND:                -0.540
REMARK SMILES Cc1ccc(NC(=O)c2ccc(C[N@H+]3CC[N@@H+](C)CC3)cc2)cc1Nc1nccc(-c2cccnc2)n1
REMARK SMILES IDX 7 1 6 2 8 3 9 5 12 6 11 7 21 8 10 9 22 10 13 11 14 12 19 13
REMARK SMILES IDX 17 14 20 15 16 16 15 17 18 18 5 21 23 22 4 23 24 24 3 25
REMARK SMILES IDX 2 26 1 27 25 28 26 30 27 31 37 32 28 33 30 34 29 35 31 36
REMARK SMILES IDX 36 37 32 38 35 39 33 40 34 41
REMARK H PARENT 6 4 17 19 14 20 25 29
ROOT
ATOM      1  C   UNL     1      12.380  62.307  13.008  1.00  0.00    +0.255 C 
ATOM      2  N   UNL     1      12.887  63.275  12.161  1.00  0.00    -0.322 N 
ATOM      3  O   UNL     1      11.725  62.497  14.026  1.00  0.00    -0.269 OA
ATOM      4  H   UNL     1      13.517  62.991  11.427  1.00  0.00    +0.170 HD
ENDROOT
BRANCH   1   5
ATOM      5  C   UNL     1      12.709  60.887  12.670  1.00  0.00    +0.040 A 
ATOM      6  C   UNL     1      13.420  58.194  12.174  1.00  0.00    +0.006 A 
ATOM      7  C   UNL     1      12.315  58.776  11.532  1.00  0.00    +0.010 A 
ATOM      8  C   UNL     1      14.154  58.968  13.085  1.00  0.00    +0.010 A 
ATOM      9  C   UNL     1      11.957  60.109  11.783  1.00  0.00    +0.014 A 
ATOM     10  C   UNL     1      13.803  60.299  13.323  1.00  0.00    +0.014 A 
BRANCH   6  11
ATOM     11  C   UNL     1      13.799  56.761  11.913  1.00  0.00    +0.299 C 
BRANCH  11  12
ATOM     12  N   UNL     1      15.058  56.332  12.671  1.00  0.00    -0.322 N 
ATOM     13  C   UNL     1      16.134  54.520  14.092  1.00  0.00    +0.324 C 
ATOM     14  N   UNL     1      17.400  54.613  13.250  1.00  0.00    -0.328 N 
ATOM     15  C   UNL     1      14.873  54.954  13.302  1.00  0.00    +0.324 C 
ATOM     16  C   UNL     1      17.574  55.979  12.596  1.00  0.00    +0.324 C 
ATOM     17  C   UNL     1      16.316  56.415  11.804  1.00  0.00    +0.324 C 
ATOM     18  C   UNL     1      17.589  53.452  12.299  1.00  0.00    +0.333 C 
ATOM     19  H   UNL     1      18.189  54.517  13.914  1.00  0.00    +0.348 HD
ATOM     20  H   UNL     1      15.147  57.026  13.429  1.00  0.00    +0.348 HD
ENDBRANCH  11  12
ENDBRANCH   6  11
ENDBRANCH   1   5
BRANCH   2  21
ATOM     21  C   UNL     1      12.688  64.673  12.253  1.00  0.00    +0.043 A 
ATOM     22  C   UNL     1      12.516  65.515  11.153  1.00  0.00    +0.052 A 
ATOM     23  C   UNL     1      12.684  65.233  13.533  1.00  0.00    +0.026 A 
ATOM     24  C   UNL     1      12.315  66.902  11.306  1.00  0.00    +0.046 A 
ATOM     25  C   UNL     1      12.492  66.605  13.704  1.00  0.00    +0.008 A 
ATOM     26  C   UNL     1      12.291  67.449  12.601  1.00  0.00    -0.027 A 
ATOM     27  C   UNL     1      12.067  68.915  12.858  1.00  0.00    +0.046 C 
BRANCH  24  28
ATOM     28  N   UNL     1      12.204  67.689  10.144  1.00  0.00    -0.324 N 
ATOM     29  H   UNL     1      12.334  68.683  10.292  1.00  0.00    +0.170 HD
BRANCH  28  30
ATOM     30  C   UNL     1      11.208  67.590   9.164  1.00  0.00    +0.227 A 
ATOM     31  N   UNL     1      11.499  67.281   7.894  1.00  0.00    -0.221 NA
ATOM     32  N   UNL     1       9.956  67.803   9.604  1.00  0.00    -0.213 NA
ATOM     33  C   UNL     1      10.473  67.214   7.030  1.00  0.00    +0.117 A 
ATOM     34  C   UNL     1       8.940  67.735   8.713  1.00  0.00    +0.077 A 
ATOM     35  C   UNL     1       9.167  67.435   7.385  1.00  0.00    +0.049 A 
BRANCH  34  36
ATOM     36  C   UNL     1       7.596  67.984   9.264  1.00  0.00    +0.019 A 
ATOM     37  C   UNL     1       7.421  68.381  10.593  1.00  0.00    +0.121 A 
ATOM     38  C   UNL     1       6.418  67.849   8.513  1.00  0.00    +0.013 A 
ATOM     39  N   UNL     1       6.226  68.619  11.191  1.00  0.00    -0.264 NA
ATOM     40  C   UNL     1       5.173  68.094   9.094  1.00  0.00    +0.021 A 
ATOM     41  C   UNL     1       5.128  68.470  10.424  1.00  0.00    +0.111 A 
ENDBRANCH  34  36
ENDBRANCH  28  30
ENDBRANCH  24  28
ENDBRANCH   2  21
TORSDOF 7
ENDMDL
