MODEL 1
REMARK VINA RESULT:    -9.775      0.000      0.000
REMARK INTER + INTRA:         -22.298
REMARK INTER:                 -19.490
REMARK INTRA:                  -2.809
REMARK UNBOUND:                -2.809
REMARK SMILES CC1(C)CCC(c2ccc(Cl)cc2)=C(C[NH+]2CCN(c3ccc(C(=O)NS(=O)(=O)c4ccc(N[C@H](CC[NH+]5CCOCC5)CSc5ccccc5)c(S(=O)(=O)C(F)(F)F)c4)cc3)CC2)C1
REMARK SMILES IDX 27 1 28 2 29 3 30 4 33 5 52 6 32 7 60 8 31 9 34 10 35 12
REMARK SMILES IDX 36 13 37 14 38 15 39 16 43 17 40 18 42 19 41 20 44 22 45 23
REMARK SMILES IDX 46 24 47 25 51 26 48 27 50 28 49 29 53 30 54 31 55 32 56 33
REMARK SMILES IDX 57 34 58 35 59 36 26 37 24 38 25 39 23 41 22 42 61 43 21 44
REMARK SMILES IDX 62 45 20 46 19 47 18 48 63 49 17 50 64 51 16 52 15 54 14 55
REMARK SMILES IDX 6 56 65 57 5 58 2 59 4 60 1 61 3 62 7 63 8 64 13 65 9 66
REMARK SMILES IDX 12 67 10 68 11 69
REMARK H PARENT 34 11 38 21 26 40 16 53
ROOT
ATOM      1  S   UNL     1      16.788  47.150  20.615  1.00  0.00    +0.264 S 
ATOM      2  O   UNL     1      16.003  47.867  21.596  1.00  0.00    -0.201 OA
ATOM      3  O   UNL     1      16.473  45.792  20.241  1.00  0.00    -0.201 OA
ENDROOT
BRANCH   1   4
ATOM      4  C   UNL     1      18.473  47.222  21.170  1.00  0.00    +0.089 A 
ATOM      5  C   UNL     1      21.126  47.461  22.098  1.00  0.00    +0.054 A 
ATOM      6  C   UNL     1      20.793  47.793  20.773  1.00  0.00    +0.101 A 
ATOM      7  C   UNL     1      20.100  46.981  22.934  1.00  0.00    +0.028 A 
ATOM      8  C   UNL     1      19.463  47.709  20.318  1.00  0.00    +0.045 A 
ATOM      9  C   UNL     1      18.787  46.852  22.476  1.00  0.00    +0.024 A 
BRANCH   5  10
ATOM     10  N   UNL     1      22.419  47.669  22.638  1.00  0.00    -0.380 N 
ATOM     11  H   UNL     1      22.953  48.052  21.845  1.00  0.00    +0.160 HD
BRANCH  10  12
ATOM     12  C   UNL     1      22.507  48.670  23.740  1.00  0.00    +0.095 C 
BRANCH  12  13
ATOM     13  C   UNL     1      21.855  49.979  23.230  1.00  0.00    +0.087 C 
BRANCH  13  14
ATOM     14  C   UNL     1      20.514  50.382  23.849  1.00  0.00    +0.264 C 
BRANCH  14  15
ATOM     15  N   UNL     1      20.532  51.715  24.552  1.00  0.00    -0.331 N 
ATOM     16  C   UNL     1      21.196  52.779  23.674  1.00  0.00    +0.291 C 
ATOM     17  C   UNL     1      21.197  51.695  25.922  1.00  0.00    +0.291 C 
ATOM     18  C   UNL     1      21.251  54.130  24.395  1.00  0.00    +0.221 C 
ATOM     19  C   UNL     1      21.227  53.106  26.520  1.00  0.00    +0.221 C 
ATOM     20  O   UNL     1      21.917  54.012  25.655  1.00  0.00    -0.370 OA
ATOM     21  H   UNL     1      19.544  52.030  24.693  1.00  0.00    +0.348 HD
ENDBRANCH  14  15
ENDBRANCH  13  14
ENDBRANCH  12  13
BRANCH  12  22
ATOM     22  C   UNL     1      23.964  48.834  24.241  1.00  0.00    +0.100 C 
BRANCH  22  23
ATOM     23  S   UNL     1      24.160  48.831  26.058  1.00  0.00    -0.124 SA
BRANCH  23  24
ATOM     24  C   UNL     1      24.608  50.537  26.346  1.00  0.00    +0.007 A 
ATOM     25  C   UNL     1      24.965  51.397  25.301  1.00  0.00    +0.015 A 
ATOM     26  C   UNL     1      24.599  51.020  27.658  1.00  0.00    +0.015 A 
ATOM     27  C   UNL     1      25.345  52.714  25.573  1.00  0.00    +0.001 A 
ATOM     28  C   UNL     1      24.974  52.338  27.928  1.00  0.00    +0.001 A 
ATOM     29  C   UNL     1      25.353  53.182  26.886  1.00  0.00    +0.000 A 
ENDBRANCH  23  24
ENDBRANCH  22  23
ENDBRANCH  12  22
ENDBRANCH  10  12
ENDBRANCH   5  10
BRANCH   6  30
ATOM     30  S   UNL     1      22.007  48.318  19.565  1.00  0.00    +0.278 S 
ATOM     31  O   UNL     1      21.275  49.098  18.581  1.00  0.00    -0.214 OA
ATOM     32  O   UNL     1      23.131  48.946  20.259  1.00  0.00    -0.214 OA
BRANCH  30  33
ATOM     33  C   UNL     1      22.546  46.722  18.865  1.00  0.00    +0.501 C 
ATOM     34  F   UNL     1      23.037  45.891  19.830  1.00  0.00    -0.156 F 
ATOM     35  F   UNL     1      23.538  46.870  17.945  1.00  0.00    -0.156 F 
ATOM     36  F   UNL     1      21.536  46.042  18.251  1.00  0.00    -0.156 F 
ENDBRANCH  30  33
ENDBRANCH   6  30
ENDBRANCH   1   4
BRANCH   1  37
ATOM     37  N   UNL     1      16.743  48.092  19.246  1.00  0.00    -0.245 N 
ATOM     38  C   UNL     1      15.581  48.478  18.572  1.00  0.00    +0.264 C 
ATOM     39  O   UNL     1      14.502  47.934  18.749  1.00  0.00    -0.268 OA
ATOM     40  H   UNL     1      17.674  48.350  18.935  1.00  0.00    +0.183 HD
BRANCH  38  41
ATOM     41  C   UNL     1      15.737  49.576  17.572  1.00  0.00    +0.040 A 
ATOM     42  C   UNL     1      16.970  49.957  17.038  1.00  0.00    +0.016 A 
ATOM     43  C   UNL     1      14.597  50.282  17.176  1.00  0.00    +0.016 A 
ATOM     44  C   UNL     1      17.046  51.014  16.116  1.00  0.00    +0.027 A 
ATOM     45  C   UNL     1      14.689  51.344  16.261  1.00  0.00    +0.027 A 
ATOM     46  C   UNL     1      15.913  51.733  15.702  1.00  0.00    +0.037 A 
BRANCH  46  47
ATOM     47  N   UNL     1      16.033  52.791  14.820  1.00  0.00    -0.360 N 
ATOM     48  C   UNL     1      15.618  54.160  15.168  1.00  0.00    +0.178 C 
ATOM     49  C   UNL     1      16.253  52.542  13.382  1.00  0.00    +0.178 C 
ATOM     50  C   UNL     1      14.356  54.567  14.380  1.00  0.00    +0.284 C 
ATOM     51  C   UNL     1      14.993  52.935  12.577  1.00  0.00    +0.284 C 
ATOM     52  N   UNL     1      14.540  54.364  12.874  1.00  0.00    -0.329 N 
ATOM     53  H   UNL     1      13.608  54.461  12.458  1.00  0.00    +0.348 HD
BRANCH  52  54
ATOM     54  C   UNL     1      15.396  55.432  12.231  1.00  0.00    +0.295 C 
BRANCH  54  55
ATOM     55  C   UNL     1      14.873  56.833  12.455  1.00  0.00    -0.012 C 
ATOM     56  C   UNL     1      15.535  57.819  13.109  1.00  0.00    -0.036 C 
ATOM     57  C   UNL     1      13.452  57.058  11.956  1.00  0.00    +0.043 C 
ATOM     58  C   UNL     1      14.952  59.200  13.347  1.00  0.00    +0.037 C 
ATOM     59  C   UNL     1      13.019  58.535  11.823  1.00  0.00    -0.031 C 
ATOM     60  C   UNL     1      13.446  59.289  13.096  1.00  0.00    +0.011 C 
ATOM     61  C   UNL     1      11.487  58.604  11.678  1.00  0.00    +0.011 C 
ATOM     62  C   UNL     1      13.645  59.170  10.565  1.00  0.00    +0.011 C 
BRANCH  56  63
ATOM     63  C   UNL     1      16.892  57.648  13.662  1.00  0.00    -0.022 A 
ATOM     64  C   UNL     1      17.593  56.450  13.466  1.00  0.00    +0.010 A 
ATOM     65  C   UNL     1      17.482  58.673  14.414  1.00  0.00    +0.010 A 
ATOM     66  C   UNL     1      18.882  56.294  13.984  1.00  0.00    +0.021 A 
ATOM     67  C   UNL     1      18.770  58.515  14.934  1.00  0.00    +0.021 A 
ATOM     68  C   UNL     1      19.468  57.328  14.710  1.00  0.00    +0.041 A 
ATOM     69 Cl   UNL     1      21.058  57.141  15.334  1.00  0.00    -0.084 Cl
ENDBRANCH  56  63
ENDBRANCH  54  55
ENDBRANCH  52  54
ENDBRANCH  46  47
ENDBRANCH  38  41
ENDBRANCH   1  37
TORSDOF 17
ENDMDL
MODEL 2
REMARK VINA RESULT:    -9.774      1.718      3.707
REMARK INTER + INTRA:         -22.295
REMARK INTER:                 -18.073
REMARK INTRA:                  -4.222
REMARK UNBOUND:                -2.809
REMARK SMILES CC1(C)CCC(c2ccc(Cl)cc2)=C(C[NH+]2CCN(c3ccc(C(=O)NS(=O)(=O)c4ccc(N[C@H](CC[NH+]5CCOCC5)CSc5ccccc5)c(S(=O)(=O)C(F)(F)F)c4)cc3)CC2)C1
REMARK SMILES IDX 27 1 28 2 29 3 30 4 33 5 52 6 32 7 60 8 31 9 34 10 35 12
REMARK SMILES IDX 36 13 37 14 38 15 39 16 43 17 40 18 42 19 41 20 44 22 45 23
REMARK SMILES IDX 46 24 47 25 51 26 48 27 50 28 49 29 53 30 54 31 55 32 56 33
REMARK SMILES IDX 57 34 58 35 59 36 26 37 24 38 25 39 23 41 22 42 61 43 21 44
REMARK SMILES IDX 62 45 20 46 19 47 18 48 63 49 17 50 64 51 16 52 15 54 14 55
REMARK SMILES IDX 6 56 65 57 5 58 2 59 4 60 1 61 3 62 7 63 8 64 13 65 9 66
REMARK SMILES IDX 12 67 10 68 11 69
REMARK H PARENT 34 11 38 21 26 40 16 53
ROOT
ATOM      1  S   UNL     1      16.634  47.020  20.619  1.00  0.00    +0.264 S 
ATOM      2  O   UNL     1      15.882  47.755  21.613  1.00  0.00    -0.201 OA
ATOM      3  O   UNL     1      16.273  45.674  20.242  1.00  0.00    -0.201 OA
ENDROOT
BRANCH   1   4
ATOM      4  C   UNL     1      18.326  47.037  21.156  1.00  0.00    +0.089 A 
ATOM      5  C   UNL     1      21.012  47.198  22.001  1.00  0.00    +0.054 A 
ATOM      6  C   UNL     1      20.693  47.021  20.643  1.00  0.00    +0.101 A 
ATOM      7  C   UNL     1      19.951  47.264  22.924  1.00  0.00    +0.028 A 
ATOM      8  C   UNL     1      19.352  46.976  20.215  1.00  0.00    +0.045 A 
ATOM      9  C   UNL     1      18.619  47.175  22.511  1.00  0.00    +0.024 A 
BRANCH   5  10
ATOM     10  N   UNL     1      22.339  47.395  22.456  1.00  0.00    -0.380 N 
ATOM     11  H   UNL     1      22.385  48.409  22.630  1.00  0.00    +0.160 HD
BRANCH  10  12
ATOM     12  C   UNL     1      22.692  46.721  23.739  1.00  0.00    +0.095 C 
BRANCH  12  13
ATOM     13  C   UNL     1      23.593  47.693  24.540  1.00  0.00    +0.087 C 
BRANCH  13  14
ATOM     14  C   UNL     1      23.800  49.095  23.963  1.00  0.00    +0.264 C 
BRANCH  14  15
ATOM     15  N   UNL     1      23.224  50.204  24.806  1.00  0.00    -0.331 N 
ATOM     16  C   UNL     1      22.070  50.895  24.074  1.00  0.00    +0.291 C 
ATOM     17  C   UNL     1      24.241  51.245  25.254  1.00  0.00    +0.291 C 
ATOM     18  C   UNL     1      21.503  52.048  24.908  1.00  0.00    +0.221 C 
ATOM     19  C   UNL     1      23.547  52.361  26.043  1.00  0.00    +0.221 C 
ATOM     20  O   UNL     1      22.527  52.983  25.255  1.00  0.00    -0.370 OA
ATOM     21  H   UNL     1      22.810  49.783  25.670  1.00  0.00    +0.348 HD
ENDBRANCH  14  15
ENDBRANCH  13  14
ENDBRANCH  12  13
BRANCH  12  22
ATOM     22  C   UNL     1      23.316  45.325  23.491  1.00  0.00    +0.100 C 
BRANCH  22  23
ATOM     23  S   UNL     1      22.427  43.933  24.274  1.00  0.00    -0.124 SA
BRANCH  23  24
ATOM     24  C   UNL     1      21.059  43.736  23.142  1.00  0.00    +0.007 A 
ATOM     25  C   UNL     1      19.730  43.723  23.578  1.00  0.00    +0.015 A 
ATOM     26  C   UNL     1      21.334  43.591  21.778  1.00  0.00    +0.015 A 
ATOM     27  C   UNL     1      18.691  43.529  22.665  1.00  0.00    +0.001 A 
ATOM     28  C   UNL     1      20.294  43.401  20.865  1.00  0.00    +0.001 A 
ATOM     29  C   UNL     1      18.974  43.364  21.310  1.00  0.00    +0.000 A 
ENDBRANCH  23  24
ENDBRANCH  22  23
ENDBRANCH  12  22
ENDBRANCH  10  12
ENDBRANCH   5  10
BRANCH   6  30
ATOM     30  S   UNL     1      21.934  46.817  19.368  1.00  0.00    +0.278 S 
ATOM     31  O   UNL     1      23.061  46.165  20.011  1.00  0.00    -0.214 OA
ATOM     32  O   UNL     1      21.323  46.172  18.206  1.00  0.00    -0.214 OA
BRANCH  30  33
ATOM     33  C   UNL     1      22.328  48.550  18.957  1.00  0.00    +0.501 C 
ATOM     34  F   UNL     1      21.210  49.252  18.614  1.00  0.00    -0.156 F 
ATOM     35  F   UNL     1      23.183  48.649  17.902  1.00  0.00    -0.156 F 
ATOM     36  F   UNL     1      22.902  49.225  19.994  1.00  0.00    -0.156 F 
ENDBRANCH  30  33
ENDBRANCH   6  30
ENDBRANCH   1   4
BRANCH   1  37
ATOM     37  N   UNL     1      16.602  47.971  19.256  1.00  0.00    -0.245 N 
ATOM     38  C   UNL     1      15.445  48.398  18.599  1.00  0.00    +0.264 C 
ATOM     39  O   UNL     1      14.351  47.889  18.786  1.00  0.00    -0.268 OA
ATOM     40  H   UNL     1      17.537  48.200  18.935  1.00  0.00    +0.183 HD
BRANCH  38  41
ATOM     41  C   UNL     1      15.625  49.496  17.603  1.00  0.00    +0.040 A 
ATOM     42  C   UNL     1      16.871  49.886  17.107  1.00  0.00    +0.016 A 
ATOM     43  C   UNL     1      14.493  50.194  17.170  1.00  0.00    +0.016 A 
ATOM     44  C   UNL     1      16.968  50.943  16.188  1.00  0.00    +0.027 A 
ATOM     45  C   UNL     1      14.605  51.256  16.258  1.00  0.00    +0.027 A 
ATOM     46  C   UNL     1      15.844  51.653  15.737  1.00  0.00    +0.037 A 
BRANCH  46  47
ATOM     47  N   UNL     1      15.984  52.712  14.858  1.00  0.00    -0.360 N 
ATOM     48  C   UNL     1      15.652  54.096  15.231  1.00  0.00    +0.178 C 
ATOM     49  C   UNL     1      16.137  52.464  13.412  1.00  0.00    +0.178 C 
ATOM     50  C   UNL     1      14.384  54.572  14.493  1.00  0.00    +0.284 C 
ATOM     51  C   UNL     1      14.869  52.926  12.657  1.00  0.00    +0.284 C 
ATOM     52  N   UNL     1      14.500  54.373  12.980  1.00  0.00    -0.329 N 
ATOM     53  H   UNL     1      13.560  54.520  12.600  1.00  0.00    +0.348 HD
BRANCH  52  54
ATOM     54  C   UNL     1      15.384  55.403  12.313  1.00  0.00    +0.295 C 
BRANCH  54  55
ATOM     55  C   UNL     1      14.886  56.821  12.484  1.00  0.00    -0.012 C 
ATOM     56  C   UNL     1      15.567  57.819  13.098  1.00  0.00    -0.036 C 
ATOM     57  C   UNL     1      13.468  57.051  11.979  1.00  0.00    +0.043 C 
ATOM     58  C   UNL     1      15.010  59.218  13.285  1.00  0.00    +0.037 C 
ATOM     59  C   UNL     1      13.061  58.529  11.791  1.00  0.00    -0.031 C 
ATOM     60  C   UNL     1      13.505  59.323  13.033  1.00  0.00    +0.011 C 
ATOM     61  C   UNL     1      11.530  58.620  11.646  1.00  0.00    +0.011 C 
ATOM     62  C   UNL     1      13.695  59.105  10.509  1.00  0.00    +0.011 C 
BRANCH  56  63
ATOM     63  C   UNL     1      16.923  57.644  13.655  1.00  0.00    -0.022 A 
ATOM     64  C   UNL     1      17.633  56.456  13.437  1.00  0.00    +0.010 A 
ATOM     65  C   UNL     1      17.501  58.657  14.434  1.00  0.00    +0.010 A 
ATOM     66  C   UNL     1      18.921  56.297  13.958  1.00  0.00    +0.021 A 
ATOM     67  C   UNL     1      18.788  58.495  14.958  1.00  0.00    +0.021 A 
ATOM     68  C   UNL     1      19.495  57.320  14.711  1.00  0.00    +0.041 A 
ATOM     69 Cl   UNL     1      21.083  57.130  15.340  1.00  0.00    -0.084 Cl
ENDBRANCH  56  63
ENDBRANCH  54  55
ENDBRANCH  52  54
ENDBRANCH  46  47
ENDBRANCH  38  41
ENDBRANCH   1  37
TORSDOF 17
ENDMDL
MODEL 3
REMARK VINA RESULT:    -9.486      1.940      2.704
REMARK INTER + INTRA:         -21.722
REMARK INTER:                 -19.031
REMARK INTRA:                  -2.691
REMARK UNBOUND:                -2.809
REMARK SMILES CC1(C)CCC(c2ccc(Cl)cc2)=C(C[NH+]2CCN(c3ccc(C(=O)NS(=O)(=O)c4ccc(N[C@H](CC[NH+]5CCOCC5)CSc5ccccc5)c(S(=O)(=O)C(F)(F)F)c4)cc3)CC2)C1
REMARK SMILES IDX 27 1 28 2 29 3 30 4 33 5 52 6 32 7 60 8 31 9 34 10 35 12
REMARK SMILES IDX 36 13 37 14 38 15 39 16 43 17 40 18 42 19 41 20 44 22 45 23
REMARK SMILES IDX 46 24 47 25 51 26 48 27 50 28 49 29 53 30 54 31 55 32 56 33
REMARK SMILES IDX 57 34 58 35 59 36 26 37 24 38 25 39 23 41 22 42 61 43 21 44
REMARK SMILES IDX 62 45 20 46 19 47 18 48 63 49 17 50 64 51 16 52 15 54 14 55
REMARK SMILES IDX 6 56 65 57 5 58 2 59 4 60 1 61 3 62 7 63 8 64 13 65 9 66
REMARK SMILES IDX 12 67 10 68 11 69
REMARK H PARENT 34 11 38 21 26 40 16 53
ROOT
ATOM      1  S   UNL     1      16.716  47.137  20.700  1.00  0.00    +0.264 S 
ATOM      2  O   UNL     1      15.853  47.820  21.640  1.00  0.00    -0.201 OA
ATOM      3  O   UNL     1      16.486  45.763  20.324  1.00  0.00    -0.201 OA
ENDROOT
BRANCH   1   4
ATOM      4  C   UNL     1      18.368  47.298  21.328  1.00  0.00    +0.089 A 
ATOM      5  C   UNL     1      21.011  47.659  22.246  1.00  0.00    +0.054 A 
ATOM      6  C   UNL     1      20.734  46.803  21.166  1.00  0.00    +0.101 A 
ATOM      7  C   UNL     1      19.926  48.306  22.869  1.00  0.00    +0.028 A 
ATOM      8  C   UNL     1      19.420  46.649  20.683  1.00  0.00    +0.045 A 
ATOM      9  C   UNL     1      18.615  48.122  22.424  1.00  0.00    +0.024 A 
BRANCH   5  10
ATOM     10  N   UNL     1      22.330  47.958  22.669  1.00  0.00    -0.380 N 
ATOM     11  H   UNL     1      22.917  47.378  22.052  1.00  0.00    +0.160 HD
BRANCH  10  12
ATOM     12  C   UNL     1      22.768  49.370  22.479  1.00  0.00    +0.095 C 
BRANCH  12  13
ATOM     13  C   UNL     1      24.104  49.340  21.697  1.00  0.00    +0.087 C 
BRANCH  13  14
ATOM     14  C   UNL     1      24.556  50.642  21.031  1.00  0.00    +0.264 C 
BRANCH  14  15
ATOM     15  N   UNL     1      23.818  50.977  19.760  1.00  0.00    -0.331 N 
ATOM     16  C   UNL     1      24.752  51.661  18.758  1.00  0.00    +0.291 C 
ATOM     17  C   UNL     1      22.574  51.831  19.963  1.00  0.00    +0.291 C 
ATOM     18  C   UNL     1      24.002  52.040  17.478  1.00  0.00    +0.221 C 
ATOM     19  C   UNL     1      21.938  52.175  18.612  1.00  0.00    +0.221 C 
ATOM     20  O   UNL     1      22.869  52.861  17.771  1.00  0.00    -0.370 OA
ATOM     21  H   UNL     1      23.510  50.085  19.309  1.00  0.00    +0.348 HD
ENDBRANCH  14  15
ENDBRANCH  13  14
ENDBRANCH  12  13
BRANCH  12  22
ATOM     22  C   UNL     1      22.834  50.129  23.829  1.00  0.00    +0.100 C 
BRANCH  22  23
ATOM     23  S   UNL     1      21.888  51.692  23.882  1.00  0.00    -0.124 SA
BRANCH  23  24
ATOM     24  C   UNL     1      22.218  52.222  25.556  1.00  0.00    +0.007 A 
ATOM     25  C   UNL     1      23.510  52.226  26.093  1.00  0.00    +0.015 A 
ATOM     26  C   UNL     1      21.146  52.645  26.348  1.00  0.00    +0.015 A 
ATOM     27  C   UNL     1      23.720  52.613  27.419  1.00  0.00    +0.001 A 
ATOM     28  C   UNL     1      21.358  53.036  27.672  1.00  0.00    +0.001 A 
ATOM     29  C   UNL     1      22.644  53.013  28.208  1.00  0.00    +0.000 A 
ENDBRANCH  23  24
ENDBRANCH  22  23
ENDBRANCH  12  22
ENDBRANCH  10  12
ENDBRANCH   5  10
BRANCH   6  30
ATOM     30  S   UNL     1      21.995  45.835  20.340  1.00  0.00    +0.278 S 
ATOM     31  O   UNL     1      23.195  45.976  21.148  1.00  0.00    -0.214 OA
ATOM     32  O   UNL     1      21.476  44.491  20.087  1.00  0.00    -0.214 OA
BRANCH  30  33
ATOM     33  C   UNL     1      22.165  46.725  18.757  1.00  0.00    +0.501 C 
ATOM     34  F   UNL     1      23.413  46.575  18.227  1.00  0.00    -0.156 F 
ATOM     35  F   UNL     1      21.964  48.064  18.893  1.00  0.00    -0.156 F 
ATOM     36  F   UNL     1      21.290  46.289  17.806  1.00  0.00    -0.156 F 
ENDBRANCH  30  33
ENDBRANCH   6  30
ENDBRANCH   1   4
BRANCH   1  37
ATOM     37  N   UNL     1      16.683  48.068  19.323  1.00  0.00    -0.245 N 
ATOM     38  C   UNL     1      15.530  48.422  18.618  1.00  0.00    +0.264 C 
ATOM     39  O   UNL     1      14.459  47.855  18.772  1.00  0.00    -0.268 OA
ATOM     40  H   UNL     1      17.616  48.344  19.033  1.00  0.00    +0.183 HD
BRANCH  38  41
ATOM     41  C   UNL     1      15.686  49.516  17.612  1.00  0.00    +0.040 A 
ATOM     42  C   UNL     1      16.927  49.965  17.154  1.00  0.00    +0.016 A 
ATOM     43  C   UNL     1      14.534  50.147  17.132  1.00  0.00    +0.016 A 
ATOM     44  C   UNL     1      17.000  51.014  16.224  1.00  0.00    +0.027 A 
ATOM     45  C   UNL     1      14.623  51.202  16.209  1.00  0.00    +0.027 A 
ATOM     46  C   UNL     1      15.856  51.657  15.725  1.00  0.00    +0.037 A 
BRANCH  46  47
ATOM     47  N   UNL     1      15.971  52.711  14.837  1.00  0.00    -0.360 N 
ATOM     48  C   UNL     1      15.667  54.101  15.215  1.00  0.00    +0.178 C 
ATOM     49  C   UNL     1      16.064  52.456  13.386  1.00  0.00    +0.178 C 
ATOM     50  C   UNL     1      14.375  54.586  14.528  1.00  0.00    +0.284 C 
ATOM     51  C   UNL     1      14.771  52.927  12.681  1.00  0.00    +0.284 C 
ATOM     52  N   UNL     1      14.428  54.379  13.012  1.00  0.00    -0.329 N 
ATOM     53  H   UNL     1      13.475  54.534  12.669  1.00  0.00    +0.348 HD
BRANCH  52  54
ATOM     54  C   UNL     1      15.295  55.398  12.305  1.00  0.00    +0.295 C 
BRANCH  54  55
ATOM     55  C   UNL     1      14.806  56.819  12.473  1.00  0.00    -0.012 C 
ATOM     56  C   UNL     1      15.497  57.816  13.077  1.00  0.00    -0.036 C 
ATOM     57  C   UNL     1      13.386  57.054  11.978  1.00  0.00    +0.043 C 
ATOM     58  C   UNL     1      14.949  59.219  13.262  1.00  0.00    +0.037 C 
ATOM     59  C   UNL     1      12.985  58.534  11.786  1.00  0.00    -0.031 C 
ATOM     60  C   UNL     1      13.443  59.332  13.020  1.00  0.00    +0.011 C 
ATOM     61  C   UNL     1      11.454  58.633  11.652  1.00  0.00    +0.011 C 
ATOM     62  C   UNL     1      13.612  59.100  10.495  1.00  0.00    +0.011 C 
BRANCH  56  63
ATOM     63  C   UNL     1      16.856  57.637  13.624  1.00  0.00    -0.022 A 
ATOM     64  C   UNL     1      17.572  56.458  13.377  1.00  0.00    +0.010 A 
ATOM     65  C   UNL     1      17.432  58.635  14.424  1.00  0.00    +0.010 A 
ATOM     66  C   UNL     1      18.862  56.295  13.889  1.00  0.00    +0.021 A 
ATOM     67  C   UNL     1      18.722  58.469  14.938  1.00  0.00    +0.021 A 
ATOM     68  C   UNL     1      19.434  57.303  14.662  1.00  0.00    +0.041 A 
ATOM     69 Cl   UNL     1      21.026  57.108  15.280  1.00  0.00    -0.084 Cl
ENDBRANCH  56  63
ENDBRANCH  54  55
ENDBRANCH  52  54
ENDBRANCH  46  47
ENDBRANCH  38  41
ENDBRANCH   1  37
TORSDOF 17
ENDMDL
MODEL 4
REMARK VINA RESULT:    -9.310      2.489      3.663
REMARK INTER + INTRA:         -21.370
REMARK INTER:                 -18.622
REMARK INTRA:                  -2.748
REMARK UNBOUND:                -2.809
REMARK SMILES CC1(C)CCC(c2ccc(Cl)cc2)=C(C[NH+]2CCN(c3ccc(C(=O)NS(=O)(=O)c4ccc(N[C@H](CC[NH+]5CCOCC5)CSc5ccccc5)c(S(=O)(=O)C(F)(F)F)c4)cc3)CC2)C1
REMARK SMILES IDX 27 1 28 2 29 3 30 4 33 5 52 6 32 7 60 8 31 9 34 10 35 12
REMARK SMILES IDX 36 13 37 14 38 15 39 16 43 17 40 18 42 19 41 20 44 22 45 23
REMARK SMILES IDX 46 24 47 25 51 26 48 27 50 28 49 29 53 30 54 31 55 32 56 33
REMARK SMILES IDX 57 34 58 35 59 36 26 37 24 38 25 39 23 41 22 42 61 43 21 44
REMARK SMILES IDX 62 45 20 46 19 47 18 48 63 49 17 50 64 51 16 52 15 54 14 55
REMARK SMILES IDX 6 56 65 57 5 58 2 59 4 60 1 61 3 62 7 63 8 64 13 65 9 66
REMARK SMILES IDX 12 67 10 68 11 69
REMARK H PARENT 34 11 38 21 26 40 16 53
ROOT
ATOM      1  S   UNL     1      15.703  46.725  20.358  1.00  0.00    +0.264 S 
ATOM      2  O   UNL     1      14.954  47.451  21.361  1.00  0.00    -0.201 OA
ATOM      3  O   UNL     1      15.275  45.429  19.888  1.00  0.00    -0.201 OA
ENDROOT
BRANCH   1   4
ATOM      4  C   UNL     1      17.366  46.601  20.966  1.00  0.00    +0.089 A 
ATOM      5  C   UNL     1      20.052  46.410  21.806  1.00  0.00    +0.054 A 
ATOM      6  C   UNL     1      19.284  45.254  21.578  1.00  0.00    +0.101 A 
ATOM      7  C   UNL     1      19.428  47.660  21.629  1.00  0.00    +0.028 A 
ATOM      8  C   UNL     1      17.954  45.347  21.124  1.00  0.00    +0.045 A 
ATOM      9  C   UNL     1      18.096  47.759  21.223  1.00  0.00    +0.024 A 
BRANCH   5  10
ATOM     10  N   UNL     1      21.433  46.363  22.120  1.00  0.00    -0.380 N 
ATOM     11  H   UNL     1      21.772  45.548  21.589  1.00  0.00    +0.160 HD
BRANCH  10  12
ATOM     12  C   UNL     1      22.239  47.535  21.674  1.00  0.00    +0.095 C 
BRANCH  12  13
ATOM     13  C   UNL     1      22.852  47.179  20.297  1.00  0.00    +0.087 C 
BRANCH  13  14
ATOM     14  C   UNL     1      22.344  47.957  19.081  1.00  0.00    +0.264 C 
BRANCH  14  15
ATOM     15  N   UNL     1      22.687  49.425  19.096  1.00  0.00    -0.331 N 
ATOM     16  C   UNL     1      21.415  50.276  19.144  1.00  0.00    +0.291 C 
ATOM     17  C   UNL     1      23.561  49.877  17.933  1.00  0.00    +0.291 C 
ATOM     18  C   UNL     1      21.753  51.770  19.121  1.00  0.00    +0.221 C 
ATOM     19  C   UNL     1      23.794  51.390  18.000  1.00  0.00    +0.221 C 
ATOM     20  O   UNL     1      22.552  52.098  17.981  1.00  0.00    -0.370 OA
ATOM     21  H   UNL     1      23.211  49.635  19.977  1.00  0.00    +0.348 HD
ENDBRANCH  14  15
ENDBRANCH  13  14
ENDBRANCH  12  13
BRANCH  12  22
ATOM     22  C   UNL     1      23.276  47.951  22.748  1.00  0.00    +0.100 C 
BRANCH  22  23
ATOM     23  S   UNL     1      23.917  49.654  22.582  1.00  0.00    -0.124 SA
BRANCH  23  24
ATOM     24  C   UNL     1      22.651  50.571  23.447  1.00  0.00    +0.007 A 
ATOM     25  C   UNL     1      21.289  50.301  23.275  1.00  0.00    +0.015 A 
ATOM     26  C   UNL     1      23.042  51.588  24.324  1.00  0.00    +0.015 A 
ATOM     27  C   UNL     1      20.330  51.066  23.942  1.00  0.00    +0.001 A 
ATOM     28  C   UNL     1      22.081  52.349  24.994  1.00  0.00    +0.001 A 
ATOM     29  C   UNL     1      20.727  52.092  24.798  1.00  0.00    +0.000 A 
ENDBRANCH  23  24
ENDBRANCH  22  23
ENDBRANCH  12  22
ENDBRANCH  10  12
ENDBRANCH   5  10
BRANCH   6  30
ATOM     30  S   UNL     1      19.907  43.599  21.859  1.00  0.00    +0.278 S 
ATOM     31  O   UNL     1      19.161  42.736  20.959  1.00  0.00    -0.214 OA
ATOM     32  O   UNL     1      21.366  43.614  21.764  1.00  0.00    -0.214 OA
BRANCH  30  33
ATOM     33  C   UNL     1      19.419  43.311  23.594  1.00  0.00    +0.501 C 
ATOM     34  F   UNL     1      20.099  42.262  24.140  1.00  0.00    -0.156 F 
ATOM     35  F   UNL     1      18.096  43.016  23.716  1.00  0.00    -0.156 F 
ATOM     36  F   UNL     1      19.660  44.385  24.399  1.00  0.00    -0.156 F 
ENDBRANCH  30  33
ENDBRANCH   6  30
ENDBRANCH   1   4
BRANCH   1  37
ATOM     37  N   UNL     1      15.793  47.750  19.053  1.00  0.00    -0.245 N 
ATOM     38  C   UNL     1      14.707  48.398  18.461  1.00  0.00    +0.264 C 
ATOM     39  O   UNL     1      13.549  48.062  18.656  1.00  0.00    -0.268 OA
ATOM     40  H   UNL     1      16.746  47.843  18.714  1.00  0.00    +0.183 HD
BRANCH  38  41
ATOM     41  C   UNL     1      15.039  49.511  17.523  1.00  0.00    +0.040 A 
ATOM     42  C   UNL     1      16.344  49.826  17.137  1.00  0.00    +0.016 A 
ATOM     43  C   UNL     1      13.995  50.303  17.033  1.00  0.00    +0.016 A 
ATOM     44  C   UNL     1      16.585  50.902  16.268  1.00  0.00    +0.027 A 
ATOM     45  C   UNL     1      14.252  51.382  16.172  1.00  0.00    +0.027 A 
ATOM     46  C   UNL     1      15.551  51.705  15.761  1.00  0.00    +0.037 A 
BRANCH  46  47
ATOM     47  N   UNL     1      15.832  52.779  14.935  1.00  0.00    -0.360 N 
ATOM     48  C   UNL     1      15.327  54.135  15.203  1.00  0.00    +0.178 C 
ATOM     49  C   UNL     1      16.354  52.555  13.573  1.00  0.00    +0.178 C 
ATOM     50  C   UNL     1      14.250  54.531  14.172  1.00  0.00    +0.284 C 
ATOM     51  C   UNL     1      15.284  52.937  12.525  1.00  0.00    +0.284 C 
ATOM     52  N   UNL     1      14.750  54.354  12.736  1.00  0.00    -0.329 N 
ATOM     53  H   UNL     1      13.925  54.440  12.134  1.00  0.00    +0.348 HD
BRANCH  52  54
ATOM     54  C   UNL     1      15.700  55.446  12.299  1.00  0.00    +0.295 C 
BRANCH  54  55
ATOM     55  C   UNL     1      15.168  56.839  12.552  1.00  0.00    -0.012 C 
ATOM     56  C   UNL     1      15.818  57.811  13.238  1.00  0.00    -0.036 C 
ATOM     57  C   UNL     1      13.752  57.069  12.042  1.00  0.00    +0.043 C 
ATOM     58  C   UNL     1      15.226  59.182  13.504  1.00  0.00    +0.037 C 
ATOM     59  C   UNL     1      13.314  58.548  11.942  1.00  0.00    -0.031 C 
ATOM     60  C   UNL     1      13.723  59.271  13.237  1.00  0.00    +0.011 C 
ATOM     61  C   UNL     1      11.783  58.614  11.780  1.00  0.00    +0.011 C 
ATOM     62  C   UNL     1      13.951  59.217  10.707  1.00  0.00    +0.011 C 
BRANCH  56  63
ATOM     63  C   UNL     1      17.169  57.631  13.802  1.00  0.00    -0.022 A 
ATOM     64  C   UNL     1      17.851  56.417  13.641  1.00  0.00    +0.010 A 
ATOM     65  C   UNL     1      17.773  58.665  14.531  1.00  0.00    +0.010 A 
ATOM     66  C   UNL     1      19.135  56.253  14.169  1.00  0.00    +0.021 A 
ATOM     67  C   UNL     1      19.056  58.499  15.062  1.00  0.00    +0.021 A 
ATOM     68  C   UNL     1      19.734  57.296  14.872  1.00  0.00    +0.041 A 
ATOM     69 Cl   UNL     1      21.318  57.099  15.509  1.00  0.00    -0.084 Cl
ENDBRANCH  56  63
ENDBRANCH  54  55
ENDBRANCH  52  54
ENDBRANCH  46  47
ENDBRANCH  38  41
ENDBRANCH   1  37
TORSDOF 17
ENDMDL
MODEL 5
REMARK VINA RESULT:    -6.861      6.355      9.155
REMARK INTER + INTRA:         -16.488
REMARK INTER:                 -12.667
REMARK INTRA:                  -3.821
REMARK UNBOUND:                -2.809
REMARK SMILES CC1(C)CCC(c2ccc(Cl)cc2)=C(C[NH+]2CCN(c3ccc(C(=O)NS(=O)(=O)c4ccc(N[C@H](CC[NH+]5CCOCC5)CSc5ccccc5)c(S(=O)(=O)C(F)(F)F)c4)cc3)CC2)C1
REMARK SMILES IDX 27 1 28 2 29 3 30 4 33 5 52 6 32 7 60 8 31 9 34 10 35 12
REMARK SMILES IDX 36 13 37 14 38 15 39 16 43 17 40 18 42 19 41 20 44 22 45 23
REMARK SMILES IDX 46 24 47 25 51 26 48 27 50 28 49 29 53 30 54 31 55 32 56 33
REMARK SMILES IDX 57 34 58 35 59 36 26 37 24 38 25 39 23 41 22 42 61 43 21 44
REMARK SMILES IDX 62 45 20 46 19 47 18 48 63 49 17 50 64 51 16 52 15 54 14 55
REMARK SMILES IDX 6 56 65 57 5 58 2 59 4 60 1 61 3 62 7 63 8 64 13 65 9 66
REMARK SMILES IDX 12 67 10 68 11 69
REMARK H PARENT 34 11 38 21 26 40 16 53
ROOT
ATOM      1  S   UNL     1      25.229  53.319  21.939  1.00  0.00    +0.264 S 
ATOM      2  O   UNL     1      26.394  53.147  21.098  1.00  0.00    -0.201 OA
ATOM      3  O   UNL     1      24.762  54.630  22.323  1.00  0.00    -0.201 OA
ENDROOT
BRANCH   1   4
ATOM      4  C   UNL     1      25.520  52.356  23.402  1.00  0.00    +0.089 A 
ATOM      5  C   UNL     1      26.112  50.853  25.714  1.00  0.00    +0.054 A 
ATOM      6  C   UNL     1      26.031  50.235  24.454  1.00  0.00    +0.101 A 
ATOM      7  C   UNL     1      25.862  52.237  25.786  1.00  0.00    +0.028 A 
ATOM      8  C   UNL     1      25.771  50.989  23.294  1.00  0.00    +0.045 A 
ATOM      9  C   UNL     1      25.558  52.983  24.646  1.00  0.00    +0.024 A 
BRANCH   5  10
ATOM     10  N   UNL     1      26.515  50.160  26.882  1.00  0.00    -0.380 N 
ATOM     11  H   UNL     1      27.438  50.565  27.096  1.00  0.00    +0.160 HD
BRANCH  10  12
ATOM     12  C   UNL     1      25.663  50.370  28.088  1.00  0.00    +0.095 C 
BRANCH  12  13
ATOM     13  C   UNL     1      26.342  49.634  29.269  1.00  0.00    +0.087 C 
BRANCH  13  14
ATOM     14  C   UNL     1      25.445  48.789  30.177  1.00  0.00    +0.264 C 
BRANCH  14  15
ATOM     15  N   UNL     1      25.722  47.309  30.118  1.00  0.00    -0.331 N 
ATOM     16  C   UNL     1      25.604  46.795  28.681  1.00  0.00    +0.291 C 
ATOM     17  C   UNL     1      24.843  46.468  31.035  1.00  0.00    +0.291 C 
ATOM     18  C   UNL     1      25.846  45.283  28.617  1.00  0.00    +0.221 C 
ATOM     19  C   UNL     1      25.152  44.979  30.851  1.00  0.00    +0.221 C 
ATOM     20  O   UNL     1      24.957  44.583  29.490  1.00  0.00    -0.370 OA
ATOM     21  H   UNL     1      26.714  47.144  30.405  1.00  0.00    +0.348 HD
ENDBRANCH  14  15
ENDBRANCH  13  14
ENDBRANCH  12  13
BRANCH  12  22
ATOM     22  C   UNL     1      24.197  49.943  27.825  1.00  0.00    +0.100 C 
BRANCH  22  23
ATOM     23  S   UNL     1      22.935  51.157  28.348  1.00  0.00    -0.124 SA
BRANCH  23  24
ATOM     24  C   UNL     1      22.358  51.740  26.761  1.00  0.00    +0.007 A 
ATOM     25  C   UNL     1      21.826  53.022  26.589  1.00  0.00    +0.015 A 
ATOM     26  C   UNL     1      22.445  50.881  25.660  1.00  0.00    +0.015 A 
ATOM     27  C   UNL     1      21.352  53.426  25.338  1.00  0.00    +0.001 A 
ATOM     28  C   UNL     1      21.975  51.288  24.409  1.00  0.00    +0.001 A 
ATOM     29  C   UNL     1      21.423  52.557  24.250  1.00  0.00    +0.000 A 
ENDBRANCH  23  24
ENDBRANCH  22  23
ENDBRANCH  12  22
ENDBRANCH  10  12
ENDBRANCH   5  10
BRANCH   6  30
ATOM     30  S   UNL     1      26.223  48.470  24.219  1.00  0.00    +0.278 S 
ATOM     31  O   UNL     1      26.828  48.308  22.908  1.00  0.00    -0.214 OA
ATOM     32  O   UNL     1      26.909  47.905  25.381  1.00  0.00    -0.214 OA
BRANCH  30  33
ATOM     33  C   UNL     1      24.487  47.908  24.212  1.00  0.00    +0.501 C 
ATOM     34  F   UNL     1      23.954  47.908  25.468  1.00  0.00    -0.156 F 
ATOM     35  F   UNL     1      24.357  46.638  23.739  1.00  0.00    -0.156 F 
ATOM     36  F   UNL     1      23.675  48.697  23.451  1.00  0.00    -0.156 F 
ENDBRANCH  30  33
ENDBRANCH   6  30
ENDBRANCH   1   4
BRANCH   1  37
ATOM     37  N   UNL     1      23.996  52.538  21.144  1.00  0.00    -0.245 N 
ATOM     38  C   UNL     1      24.163  51.630  20.095  1.00  0.00    +0.264 C 
ATOM     39  O   UNL     1      25.204  51.529  19.466  1.00  0.00    -0.268 OA
ATOM     40  H   UNL     1      23.086  52.811  21.500  1.00  0.00    +0.183 HD
BRANCH  38  41
ATOM     41  C   UNL     1      22.966  50.807  19.745  1.00  0.00    +0.040 A 
ATOM     42  C   UNL     1      21.961  51.245  18.881  1.00  0.00    +0.016 A 
ATOM     43  C   UNL     1      22.827  49.548  20.340  1.00  0.00    +0.016 A 
ATOM     44  C   UNL     1      20.851  50.426  18.613  1.00  0.00    +0.027 A 
ATOM     45  C   UNL     1      21.708  48.744  20.071  1.00  0.00    +0.027 A 
ATOM     46  C   UNL     1      20.696  49.157  19.195  1.00  0.00    +0.037 A 
BRANCH  46  47
ATOM     47  N   UNL     1      19.571  48.396  18.935  1.00  0.00    -0.360 N 
ATOM     48  C   UNL     1      19.598  47.227  18.041  1.00  0.00    +0.178 C 
ATOM     49  C   UNL     1      18.228  48.915  19.259  1.00  0.00    +0.178 C 
ATOM     50  C   UNL     1      18.835  47.522  16.733  1.00  0.00    +0.284 C 
ATOM     51  C   UNL     1      17.452  49.226  17.958  1.00  0.00    +0.284 C 
ATOM     52  N   UNL     1      17.417  48.031  17.006  1.00  0.00    -0.329 N 
ATOM     53  H   UNL     1      17.065  48.387  16.112  1.00  0.00    +0.348 HD
BRANCH  52  54
ATOM     54  C   UNL     1      16.463  46.934  17.422  1.00  0.00    +0.295 C 
BRANCH  54  55
ATOM     55  C   UNL     1      15.289  47.438  18.231  1.00  0.00    -0.012 C 
ATOM     56  C   UNL     1      15.124  47.259  19.564  1.00  0.00    -0.036 C 
ATOM     57  C   UNL     1      14.205  48.116  17.403  1.00  0.00    +0.043 C 
ATOM     58  C   UNL     1      13.906  47.746  20.327  1.00  0.00    +0.037 C 
ATOM     59  C   UNL     1      13.188  48.960  18.203  1.00  0.00    -0.031 C 
ATOM     60  C   UNL     1      12.735  48.151  19.431  1.00  0.00    +0.011 C 
ATOM     61  C   UNL     1      11.969  49.265  17.312  1.00  0.00    +0.011 C 
ATOM     62  C   UNL     1      13.816  50.304  18.625  1.00  0.00    +0.011 C 
BRANCH  56  63
ATOM     63  C   UNL     1      16.112  46.564  20.411  1.00  0.00    -0.022 A 
ATOM     64  C   UNL     1      16.159  45.164  20.446  1.00  0.00    +0.010 A 
ATOM     65  C   UNL     1      16.996  47.301  21.213  1.00  0.00    +0.010 A 
ATOM     66  C   UNL     1      17.102  44.508  21.243  1.00  0.00    +0.021 A 
ATOM     67  C   UNL     1      17.937  46.644  22.012  1.00  0.00    +0.021 A 
ATOM     68  C   UNL     1      17.991  45.251  22.017  1.00  0.00    +0.041 A 
ATOM     69 Cl   UNL     1      19.160  44.445  22.986  1.00  0.00    -0.084 Cl
ENDBRANCH  56  63
ENDBRANCH  54  55
ENDBRANCH  52  54
ENDBRANCH  46  47
ENDBRANCH  38  41
ENDBRANCH   1  37
TORSDOF 17
ENDMDL
