REMARK SMILES Cc1ccc(NC(=O)c2ccc(C[N@H+]3CC[N@@H+](C)CC3)cc2)cc1Nc1nccc(-c2cccnc2)n1
REMARK SMILES IDX 7 1 6 2 8 3 9 5 12 6 11 7 21 8 10 9 22 10 13 11 14 12 19 13
REMARK SMILES IDX 17 14 20 15 16 16 15 17 18 18 5 21 23 22 4 23 24 24 3 25
REMARK SMILES IDX 2 26 1 27 25 28 26 30 27 31 37 32 28 33 30 34 29 35 31 36
REMARK SMILES IDX 36 37 32 38 35 39 33 40 34 41
REMARK H PARENT 6 4 17 19 14 20 25 29
ROOT
ATOM      1  C   UNL     1       4.903   4.349  -1.899  1.00  0.00    +0.255 C 
ATOM      2  N   UNL     1       4.381   4.812  -3.084  1.00  0.00    -0.322 N 
ATOM      3  O   UNL     1       5.436   4.971  -0.989  1.00  0.00    -0.269 OA
ATOM      4  H   UNL     1       3.906   4.150  -3.687  1.00  0.00    +0.170 HD
ENDROOT
BRANCH   1   5
ATOM      5  C   UNL     1       4.832   2.884  -1.716  1.00  0.00    +0.040 A 
ATOM      6  C   UNL     1       5.056   0.155  -1.129  1.00  0.00    +0.006 A 
ATOM      7  C   UNL     1       4.433   1.026  -0.222  1.00  0.00    +0.010 A 
ATOM      8  C   UNL     1       5.471   0.653  -2.378  1.00  0.00    +0.010 A 
ATOM      9  C   UNL     1       4.345   2.389  -0.504  1.00  0.00    +0.014 A 
ATOM     10  C   UNL     1       5.366   2.016  -2.670  1.00  0.00    +0.014 A 
BRANCH   6  11
ATOM     11  C   UNL     1       5.309  -1.277  -0.754  1.00  0.00    +0.299 C 
BRANCH  11  12
ATOM     12  N   UNL     1       6.619  -1.537  -0.003  1.00  0.00    -0.322 N 
ATOM     13  C   UNL     1       8.462   0.170  -0.578  1.00  0.00    +0.324 C 
ATOM     14  N   UNL     1       8.583   0.522   0.897  1.00  0.00    -0.328 N 
ATOM     15  C   UNL     1       7.899  -1.260  -0.783  1.00  0.00    +0.324 C 
ATOM     16  C   UNL     1       7.264   0.353   1.637  1.00  0.00    +0.324 C 
ATOM     17  C   UNL     1       6.666  -1.065   1.447  1.00  0.00    +0.324 C 
ATOM     18  C   UNL     1       9.121   1.934   1.073  1.00  0.00    +0.333 C 
ATOM     19  H   UNL     1       9.293  -0.087   1.333  1.00  0.00    +0.348 HD
ATOM     20  H   UNL     1       6.589  -2.567   0.074  1.00  0.00    +0.348 HD
ENDBRANCH  11  12
ENDBRANCH   6  11
ENDBRANCH   1   5
BRANCH   2  21
ATOM     21  C   UNL     1       4.364   6.148  -3.542  1.00  0.00    +0.043 A 
ATOM     22  C   UNL     1       3.737   6.394  -4.773  1.00  0.00    +0.052 A 
ATOM     23  C   UNL     1       4.934   7.211  -2.851  1.00  0.00    +0.026 A 
ATOM     24  C   UNL     1       3.656   7.681  -5.331  1.00  0.00    +0.046 A 
ATOM     25  C   UNL     1       4.880   8.498  -3.387  1.00  0.00    +0.008 A 
ATOM     26  C   UNL     1       4.256   8.745  -4.620  1.00  0.00    -0.027 A 
ATOM     27  C   UNL     1       4.241  10.158  -5.144  1.00  0.00    +0.046 C 
BRANCH  24  28
ATOM     28  N   UNL     1       3.049   7.925  -6.571  1.00  0.00    -0.324 N 
ATOM     29  H   UNL     1       2.908   8.891  -6.831  1.00  0.00    +0.170 HD
BRANCH  28  30
ATOM     30  C   UNL     1       2.416   7.137  -7.529  1.00  0.00    +0.227 A 
ATOM     31  N   UNL     1       2.379   5.799  -7.452  1.00  0.00    -0.221 NA
ATOM     32  N   UNL     1       1.857   7.831  -8.533  1.00  0.00    -0.213 NA
ATOM     33  C   UNL     1       1.741   5.151  -8.442  1.00  0.00    +0.117 A 
ATOM     34  C   UNL     1       1.208   7.157  -9.511  1.00  0.00    +0.077 A 
ATOM     35  C   UNL     1       1.133   5.780  -9.500  1.00  0.00    +0.049 A 
BRANCH  34  36
ATOM     36  C   UNL     1       0.612   7.989 -10.570  1.00  0.00    +0.019 A 
ATOM     37  C   UNL     1      -0.537   7.613 -11.270  1.00  0.00    +0.121 A 
ATOM     38  C   UNL     1       1.164   9.226 -10.936  1.00  0.00    +0.013 A 
ATOM     39  N   UNL     1      -1.120   8.332 -12.261  1.00  0.00    -0.264 NA
ATOM     40  C   UNL     1       0.587   9.996 -11.947  1.00  0.00    +0.021 A 
ATOM     41  C   UNL     1      -0.544   9.509 -12.576  1.00  0.00    +0.111 A 
ENDBRANCH  34  36
ENDBRANCH  28  30
ENDBRANCH  24  28
ENDBRANCH   2  21
TORSDOF 7
