REMARK SMILES Cc1ccc(NC(=O)c2ccc(C[N@H+]3CC[N@@H+](C)CC3)cc2)cc1Nc1nccc(-c2cccnc2)n1
REMARK SMILES IDX 7 1 6 2 8 3 9 5 12 6 11 7 21 8 10 9 22 10 13 11 14 12 19 13
REMARK SMILES IDX 17 14 20 15 16 16 15 17 18 18 5 21 23 22 4 23 24 24 3 25
REMARK SMILES IDX 2 26 1 27 25 28 26 30 27 31 37 32 28 33 30 34 29 35 31 36
REMARK SMILES IDX 36 37 32 38 35 39 33 40 34 41
REMARK H PARENT 6 4 17 19 14 20 25 29
ROOT
ATOM      1  C   UNL     1      -4.160  -5.419  -3.827  1.00  0.00    +0.255 C 
ATOM      2  N   UNL     1      -4.991  -5.987  -4.775  1.00  0.00    -0.322 N 
ATOM      3  O   UNL     1      -3.104  -5.880  -3.410  1.00  0.00    -0.269 OA
ATOM      4  H   UNL     1      -5.894  -5.569  -4.937  1.00  0.00    +0.170 HD
ENDROOT
BRANCH   1   5
ATOM      5  C   UNL     1      -4.627  -4.135  -3.216  1.00  0.00    +0.040 A 
ATOM      6  C   UNL     1      -5.372  -1.711  -1.963  1.00  0.00    +0.006 A 
ATOM      7  C   UNL     1      -5.903  -2.067  -3.213  1.00  0.00    +0.010 A 
ATOM      8  C   UNL     1      -4.446  -2.571  -1.355  1.00  0.00    +0.010 A 
ATOM      9  C   UNL     1      -5.528  -3.265  -3.839  1.00  0.00    +0.014 A 
ATOM     10  C   UNL     1      -4.085  -3.770  -1.975  1.00  0.00    +0.014 A 
BRANCH   6  11
ATOM     11  C   UNL     1      -5.766  -0.421  -1.295  1.00  0.00    +0.299 C 
BRANCH  11  12
ATOM     12  N   UNL     1      -6.515  -0.639   0.022  1.00  0.00    -0.322 N 
ATOM     13  C   UNL     1      -7.361   0.449   2.158  1.00  0.00    +0.324 C 
ATOM     14  N   UNL     1      -8.709  -0.237   1.973  1.00  0.00    -0.328 N 
ATOM     15  C   UNL     1      -6.624   0.664   0.811  1.00  0.00    +0.324 C 
ATOM     16  C   UNL     1      -8.608  -1.524   1.161  1.00  0.00    +0.324 C 
ATOM     17  C   UNL     1      -7.873  -1.312  -0.186  1.00  0.00    +0.324 C 
ATOM     18  C   UNL     1      -9.810   0.691   1.511  1.00  0.00    +0.333 C 
ATOM     19  H   UNL     1      -9.012  -0.525   2.920  1.00  0.00    +0.348 HD
ATOM     20  H   UNL     1      -5.915  -1.289   0.551  1.00  0.00    +0.348 HD
ENDBRANCH  11  12
ENDBRANCH   6  11
ENDBRANCH   1   5
BRANCH   2  21
ATOM     21  C   UNL     1      -4.755  -7.173  -5.510  1.00  0.00    +0.043 A 
ATOM     22  C   UNL     1      -3.570  -7.909  -5.453  1.00  0.00    +0.052 A 
ATOM     23  C   UNL     1      -5.777  -7.614  -6.355  1.00  0.00    +0.026 A 
ATOM     24  C   UNL     1      -3.394  -9.089  -6.204  1.00  0.00    +0.046 A 
ATOM     25  C   UNL     1      -5.619  -8.777  -7.110  1.00  0.00    +0.008 A 
ATOM     26  C   UNL     1      -4.439  -9.533  -7.033  1.00  0.00    -0.027 A 
ATOM     27  C   UNL     1      -4.343 -10.789  -7.857  1.00  0.00    +0.046 C 
BRANCH  24  28
ATOM     28  N   UNL     1      -2.148  -9.742  -6.132  1.00  0.00    -0.324 N 
ATOM     29  H   UNL     1      -1.635  -9.581  -5.274  1.00  0.00    +0.170 HD
BRANCH  28  30
ATOM     30  C   UNL     1      -1.175  -9.790  -7.139  1.00  0.00    +0.227 A 
ATOM     31  N   UNL     1      -1.491  -9.625  -8.430  1.00  0.00    -0.221 NA
ATOM     32  N   UNL     1       0.081  -9.987  -6.706  1.00  0.00    -0.213 NA
ATOM     33  C   UNL     1      -0.487  -9.692  -9.319  1.00  0.00    +0.117 A 
ATOM     34  C   UNL     1       1.075 -10.056  -7.621  1.00  0.00    +0.077 A 
ATOM     35  C   UNL     1       0.822  -9.909  -8.970  1.00  0.00    +0.049 A 
BRANCH  34  36
ATOM     36  C   UNL     1       2.426 -10.279  -7.075  1.00  0.00    +0.019 A 
ATOM     37  C   UNL     1       2.770  -9.837  -5.795  1.00  0.00    +0.121 A 
ATOM     38  C   UNL     1       3.443 -10.940  -7.781  1.00  0.00    +0.013 A 
ATOM     39  N   UNL     1       3.989  -9.983  -5.215  1.00  0.00    -0.264 NA
ATOM     40  C   UNL     1       4.705 -11.115  -7.212  1.00  0.00    +0.021 A 
ATOM     41  C   UNL     1       4.929 -10.622  -5.939  1.00  0.00    +0.111 A 
ENDBRANCH  34  36
ENDBRANCH  28  30
ENDBRANCH  24  28
ENDBRANCH   2  21
TORSDOF 7
