REMARK SMILES Cc1ccc(NC(=O)c2ccc(C[N@H+]3CC[N@H+](C)CC3)cc2)cc1Nc1nccc(-c2cccnc2)n1
REMARK SMILES IDX 7 1 6 2 8 3 9 5 12 6 11 7 21 8 10 9 22 10 13 11 14 12 16 13
REMARK SMILES IDX 17 14 15 15 19 16 20 17 18 18 5 21 23 22 4 23 24 24 3 25
REMARK SMILES IDX 2 26 1 27 25 28 26 30 27 31 37 32 28 33 30 34 29 35 31 36
REMARK SMILES IDX 36 37 32 38 35 39 33 40 34 41
REMARK H PARENT 6 4 17 19 14 20 25 29
ROOT
ATOM      1  C   UNL     1       5.140  -5.580  -3.270  1.00  0.00    +0.255 C 
ATOM      2  N   UNL     1       3.915  -5.913  -3.805  1.00  0.00    -0.322 N 
ATOM      3  O   UNL     1       5.999  -6.327  -2.820  1.00  0.00    -0.269 OA
ATOM      4  H   UNL     1       3.373  -5.181  -4.247  1.00  0.00    +0.170 HD
ENDROOT
BRANCH   1   5
ATOM      5  C   UNL     1       5.449  -4.127  -3.253  1.00  0.00    +0.040 A 
ATOM      6  C   UNL     1       6.181  -1.422  -3.038  1.00  0.00    +0.006 A 
ATOM      7  C   UNL     1       7.122  -2.383  -3.439  1.00  0.00    +0.010 A 
ATOM      8  C   UNL     1       4.859  -1.827  -2.780  1.00  0.00    +0.010 A 
ATOM      9  C   UNL     1       6.760  -3.727  -3.533  1.00  0.00    +0.014 A 
ATOM     10  C   UNL     1       4.495  -3.174  -2.884  1.00  0.00    +0.014 A 
BRANCH   6  11
ATOM     11  C   UNL     1       6.602   0.007  -2.832  1.00  0.00    +0.299 C 
BRANCH  11  12
ATOM     12  N   UNL     1       6.668   0.408  -1.360  1.00  0.00    -0.322 N 
ATOM     13  C   UNL     1       9.056  -0.163  -0.663  1.00  0.00    +0.324 C 
ATOM     14  N   UNL     1       9.359   1.323  -0.480  1.00  0.00    -0.328 N 
ATOM     15  C   UNL     1       7.553  -0.472  -0.472  1.00  0.00    +0.324 C 
ATOM     16  C   UNL     1       8.464   2.224  -1.328  1.00  0.00    +0.324 C 
ATOM     17  C   UNL     1       6.959   1.892  -1.155  1.00  0.00    +0.324 C 
ATOM     18  C   UNL     1       9.450   1.749   0.970  1.00  0.00    +0.333 C 
ATOM     19  H   UNL     1      10.322   1.461  -0.834  1.00  0.00    +0.348 HD
ATOM     20  H   UNL     1       5.705   0.249  -1.024  1.00  0.00    +0.348 HD
ENDBRANCH  11  12
ENDBRANCH   6  11
ENDBRANCH   1   5
BRANCH   2  21
ATOM     21  C   UNL     1       3.347  -7.204  -3.894  1.00  0.00    +0.043 A 
ATOM     22  C   UNL     1       2.110  -7.315  -4.550  1.00  0.00    +0.052 A 
ATOM     23  C   UNL     1       3.933  -8.347  -3.365  1.00  0.00    +0.026 A 
ATOM     24  C   UNL     1       1.448  -8.544  -4.700  1.00  0.00    +0.046 A 
ATOM     25  C   UNL     1       3.292  -9.580  -3.488  1.00  0.00    +0.008 A 
ATOM     26  C   UNL     1       2.055  -9.692  -4.143  1.00  0.00    -0.027 A 
ATOM     27  C   UNL     1       1.417 -11.054  -4.234  1.00  0.00    +0.046 C 
BRANCH  24  28
ATOM     28  N   UNL     1       0.204  -8.655  -5.340  1.00  0.00    -0.324 N 
ATOM     29  H   UNL     1      -0.141  -9.588  -5.513  1.00  0.00    +0.170 HD
BRANCH  28  30
ATOM     30  C   UNL     1      -0.671  -7.763  -5.954  1.00  0.00    +0.227 A 
ATOM     31  N   UNL     1      -0.474  -6.437  -5.945  1.00  0.00    -0.221 NA
ATOM     32  N   UNL     1      -1.727  -8.343  -6.545  1.00  0.00    -0.213 NA
ATOM     33  C   UNL     1      -1.393  -5.680  -6.568  1.00  0.00    +0.117 A 
ATOM     34  C   UNL     1      -2.633  -7.563  -7.177  1.00  0.00    +0.077 A 
ATOM     35  C   UNL     1      -2.497  -6.191  -7.205  1.00  0.00    +0.049 A 
BRANCH  34  36
ATOM     36  C   UNL     1      -3.757  -8.275  -7.809  1.00  0.00    +0.019 A 
ATOM     37  C   UNL     1      -4.412  -7.798  -8.947  1.00  0.00    +0.121 A 
ATOM     38  C   UNL     1      -4.237  -9.494  -7.304  1.00  0.00    +0.013 A 
ATOM     39  N   UNL     1      -5.458  -8.404  -9.561  1.00  0.00    -0.264 NA
ATOM     40  C   UNL     1      -5.307 -10.149  -7.913  1.00  0.00    +0.021 A 
ATOM     41  C   UNL     1      -5.881  -9.568  -9.029  1.00  0.00    +0.111 A 
ENDBRANCH  34  36
ENDBRANCH  28  30
ENDBRANCH  24  28
ENDBRANCH   2  21
TORSDOF 7
