REMARK SMILES CC1(C)CCC(c2ccc(Cl)cc2)=C(C[NH+]2CCN(c3ccc(C(=O)NS(=O)(=O)c4ccc(N[C@H](CC[NH+]5CCOCC5)CSc5ccccc5)c(S(=O)(=O)C(F)(F)F)c4)cc3)CC2)C1
REMARK SMILES IDX 27 1 28 2 29 3 30 4 33 5 52 6 32 7 60 8 31 9 34 10 35 12
REMARK SMILES IDX 36 13 37 14 38 15 39 16 43 17 40 18 42 19 41 20 44 22 45 23
REMARK SMILES IDX 46 24 47 25 51 26 48 27 50 28 49 29 53 30 54 31 55 32 56 33
REMARK SMILES IDX 57 34 58 35 59 36 26 37 24 38 25 39 23 41 22 42 61 43 21 44
REMARK SMILES IDX 62 45 20 46 19 47 18 48 63 49 17 50 64 51 16 52 15 54 14 55
REMARK SMILES IDX 6 56 65 57 5 58 2 59 4 60 1 61 3 62 7 63 8 64 13 65 9 66
REMARK SMILES IDX 12 67 10 68 11 69
REMARK H PARENT 34 11 38 21 26 40 16 53
ROOT
ATOM      1  S   UNL     1      -0.701   3.058  -4.735  1.00  0.00    +0.264 S 
ATOM      2  O   UNL     1      -0.243   4.010  -5.724  1.00  0.00    -0.201 OA
ATOM      3  O   UNL     1      -1.393   3.486  -3.542  1.00  0.00    -0.201 OA
ENDROOT
BRANCH   1   4
ATOM      4  C   UNL     1      -1.716   1.891  -5.599  1.00  0.00    +0.089 A 
ATOM      5  C   UNL     1      -3.398   0.111  -7.027  1.00  0.00    +0.054 A 
ATOM      6  C   UNL     1      -1.992  -0.008  -7.053  1.00  0.00    +0.101 A 
ATOM      7  C   UNL     1      -3.927   1.085  -6.169  1.00  0.00    +0.028 A 
ATOM      8  C   UNL     1      -1.148   0.895  -6.387  1.00  0.00    +0.045 A 
ATOM      9  C   UNL     1      -3.101   1.971  -5.464  1.00  0.00    +0.024 A 
BRANCH   5  10
ATOM     10  N   UNL     1      -4.195  -0.779  -7.755  1.00  0.00    -0.380 N 
ATOM     11  H   UNL     1      -3.766  -0.932  -8.687  1.00  0.00    +0.160 HD
BRANCH  10  12
ATOM     12  C   UNL     1      -5.653  -0.617  -7.915  1.00  0.00    +0.095 C 
BRANCH  12  13
ATOM     13  C   UNL     1      -6.205  -2.011  -8.306  1.00  0.00    +0.087 C 
BRANCH  13  14
ATOM     14  C   UNL     1      -7.723  -2.080  -8.265  1.00  0.00    +0.264 C 
BRANCH  14  15
ATOM     15  N   UNL     1      -8.296  -3.443  -8.587  1.00  0.00    -0.331 N 
ATOM     16  C   UNL     1      -7.861  -4.609  -7.705  1.00  0.00    +0.291 C 
ATOM     17  C   UNL     1      -8.345  -3.825 -10.064  1.00  0.00    +0.291 C 
ATOM     18  C   UNL     1      -6.680  -5.383  -8.301  1.00  0.00    +0.221 C 
ATOM     19  C   UNL     1      -7.126  -4.640 -10.496  1.00  0.00    +0.221 C 
ATOM     20  O   UNL     1      -6.952  -5.779  -9.648  1.00  0.00    -0.370 OA
ATOM     21  H   UNL     1      -9.292  -3.329  -8.352  1.00  0.00    +0.348 HD
ENDBRANCH  14  15
ENDBRANCH  13  14
ENDBRANCH  12  13
BRANCH  12  22
ATOM     22  C   UNL     1      -5.996   0.514  -8.918  1.00  0.00    +0.100 C 
BRANCH  22  23
ATOM     23  S   UNL     1      -5.180   0.332 -10.551  1.00  0.00    -0.124 SA
BRANCH  23  24
ATOM     24  C   UNL     1      -6.472  -0.354 -11.566  1.00  0.00    +0.007 A 
ATOM     25  C   UNL     1      -6.170  -1.458 -12.371  1.00  0.00    +0.015 A 
ATOM     26  C   UNL     1      -7.743   0.222 -11.652  1.00  0.00    +0.015 A 
ATOM     27  C   UNL     1      -7.133  -1.998 -13.228  1.00  0.00    +0.001 A 
ATOM     28  C   UNL     1      -8.709  -0.322 -12.504  1.00  0.00    +0.001 A 
ATOM     29  C   UNL     1      -8.404  -1.433 -13.289  1.00  0.00    +0.000 A 
ENDBRANCH  23  24
ENDBRANCH  22  23
ENDBRANCH  12  22
ENDBRANCH  10  12
ENDBRANCH   5  10
BRANCH   6  30
ATOM     30  S   UNL     1      -1.232  -1.371  -7.931  1.00  0.00    +0.278 S 
ATOM     31  O   UNL     1       0.207  -1.161  -7.852  1.00  0.00    -0.214 OA
ATOM     32  O   UNL     1      -1.880  -1.418  -9.237  1.00  0.00    -0.214 OA
BRANCH  30  33
ATOM     33  C   UNL     1      -1.714  -2.808  -6.914  1.00  0.00    +0.501 C 
ATOM     34  F   UNL     1      -0.879  -3.871  -7.102  1.00  0.00    -0.156 F 
ATOM     35  F   UNL     1      -2.970  -3.272  -7.191  1.00  0.00    -0.156 F 
ATOM     36  F   UNL     1      -1.689  -2.537  -5.577  1.00  0.00    -0.156 F 
ENDBRANCH  30  33
ENDBRANCH   6  30
ENDBRANCH   1   4
BRANCH   1  37
ATOM     37  N   UNL     1       0.661   2.220  -4.275  1.00  0.00    -0.245 N 
ATOM     38  C   UNL     1       0.664   1.133  -3.395  1.00  0.00    +0.264 C 
ATOM     39  O   UNL     1      -0.356   0.568  -3.033  1.00  0.00    -0.268 OA
ATOM     40  H   UNL     1       1.503   2.692  -4.585  1.00  0.00    +0.183 HD
BRANCH  38  41
ATOM     41  C   UNL     1       2.004   0.670  -2.932  1.00  0.00    +0.040 A 
ATOM     42  C   UNL     1       3.194   0.962  -3.602  1.00  0.00    +0.016 A 
ATOM     43  C   UNL     1       2.065  -0.076  -1.750  1.00  0.00    +0.016 A 
ATOM     44  C   UNL     1       4.421   0.528  -3.077  1.00  0.00    +0.027 A 
ATOM     45  C   UNL     1       3.297  -0.506  -1.235  1.00  0.00    +0.027 A 
ATOM     46  C   UNL     1       4.504  -0.199  -1.877  1.00  0.00    +0.037 A 
BRANCH  46  47
ATOM     47  N   UNL     1       5.766  -0.599  -1.401  1.00  0.00    -0.360 N 
ATOM     48  C   UNL     1       5.806  -1.712  -0.430  1.00  0.00    +0.178 C 
ATOM     49  C   UNL     1       6.647   0.543  -1.053  1.00  0.00    +0.178 C 
ATOM     50  C   UNL     1       7.254  -2.210  -0.238  1.00  0.00    +0.284 C 
ATOM     51  C   UNL     1       8.101   0.069  -0.840  1.00  0.00    +0.284 C 
ATOM     52  N   UNL     1       8.156  -1.057   0.181  1.00  0.00    -0.329 N 
ATOM     53  H   UNL     1       7.770  -0.690   1.057  1.00  0.00    +0.348 HD
BRANCH  52  54
ATOM     54  C   UNL     1       9.555  -1.514   0.490  1.00  0.00    +0.295 C 
BRANCH  54  55
ATOM     55  C   UNL     1      10.375  -0.493   1.244  1.00  0.00    -0.012 C 
ATOM     56  C   UNL     1      10.103  -0.038   2.492  1.00  0.00    -0.036 C 
ATOM     57  C   UNL     1      11.613  -0.025   0.494  1.00  0.00    +0.043 C 
ATOM     58  C   UNL     1      10.983   0.954   3.227  1.00  0.00    +0.037 C 
ATOM     59  C   UNL     1      12.277   1.257   1.048  1.00  0.00    -0.031 C 
ATOM     60  C   UNL     1      12.355   1.154   2.582  1.00  0.00    +0.011 C 
ATOM     61  C   UNL     1      13.700   1.381   0.473  1.00  0.00    +0.011 C 
ATOM     62  C   UNL     1      11.479   2.505   0.620  1.00  0.00    +0.011 C 
BRANCH  56  63
ATOM     63  C   UNL     1       8.916  -0.468   3.254  1.00  0.00    -0.022 A 
ATOM     64  C   UNL     1       8.822  -1.771   3.761  1.00  0.00    +0.010 A 
ATOM     65  C   UNL     1       7.854   0.426   3.454  1.00  0.00    +0.010 A 
ATOM     66  C   UNL     1       7.668  -2.185   4.430  1.00  0.00    +0.021 A 
ATOM     67  C   UNL     1       6.700   0.010   4.123  1.00  0.00    +0.021 A 
ATOM     68  C   UNL     1       6.609  -1.296   4.601  1.00  0.00    +0.041 A 
ATOM     69 Cl   UNL     1       5.178  -1.815   5.396  1.00  0.00    -0.084 Cl
ENDBRANCH  56  63
ENDBRANCH  54  55
ENDBRANCH  52  54
ENDBRANCH  46  47
ENDBRANCH  38  41
ENDBRANCH   1  37
TORSDOF 17
