MODEL 1
REMARK VINA RESULT:   -10.165      0.000      0.000
REMARK INTER + INTRA:         -25.148
REMARK INTER:                 -20.268
REMARK INTRA:                  -4.880
REMARK UNBOUND:                -4.880
REMARK SMILES CC1(C)CCC(c2ccc(Cl)cc2)=C(C[NH+]2CCN(c3ccc(C(=O)NS(=O)(=O)c4ccc(N[C@H](CC[NH+]5CCOCC5)CSc5ccccc5)c(S(=O)(=O)C(F)(F)F)c4)cc3)CC2)C1
REMARK SMILES IDX 27 1 28 2 29 3 30 4 33 5 52 6 32 7 60 8 31 9 34 10 35 12
REMARK SMILES IDX 36 13 37 14 38 15 39 16 43 17 40 18 42 19 41 20 44 22 45 23
REMARK SMILES IDX 46 24 47 25 51 26 48 27 50 28 49 29 53 30 54 31 55 32 56 33
REMARK SMILES IDX 57 34 58 35 59 36 26 37 24 38 25 39 23 41 22 42 61 43 21 44
REMARK SMILES IDX 62 45 20 46 19 47 18 48 63 49 17 50 64 51 16 52 15 54 14 55
REMARK SMILES IDX 6 56 65 57 5 58 2 59 4 60 1 61 3 62 7 63 8 64 13 65 9 66
REMARK SMILES IDX 12 67 10 68 11 69
REMARK H PARENT 34 11 38 21 26 40 16 53
ROOT
ATOM      1  S   UNL     1     -12.679  -9.331   9.932  1.00  0.00    +0.264 S 
ATOM      2  O   UNL     1     -13.363  -8.539  10.931  1.00  0.00    -0.201 OA
ATOM      3  O   UNL     1     -12.983  -9.198   8.527  1.00  0.00    -0.201 OA
ENDROOT
BRANCH   1   4
ATOM      4  C   UNL     1     -10.946  -9.049  10.173  1.00  0.00    +0.089 A 
ATOM      5  C   UNL     1      -8.185  -8.637  10.665  1.00  0.00    +0.054 A 
ATOM      6  C   UNL     1      -8.645  -9.322   9.520  1.00  0.00    +0.101 A 
ATOM      7  C   UNL     1      -9.166  -8.072  11.492  1.00  0.00    +0.028 A 
ATOM      8  C   UNL     1     -10.007  -9.572   9.289  1.00  0.00    +0.045 A 
ATOM      9  C   UNL     1     -10.533  -8.276  11.256  1.00  0.00    +0.024 A 
BRANCH   5  10
ATOM     10  N   UNL     1      -6.814  -8.464  10.881  1.00  0.00    -0.380 N 
ATOM     11  H   UNL     1      -6.300  -9.248  10.435  1.00  0.00    +0.160 HD
BRANCH  10  12
ATOM     12  C   UNL     1      -6.229  -8.197  12.209  1.00  0.00    +0.095 C 
BRANCH  12  13
ATOM     13  C   UNL     1      -4.993  -7.294  11.966  1.00  0.00    +0.087 C 
BRANCH  13  14
ATOM     14  C   UNL     1      -3.773  -8.071  11.500  1.00  0.00    +0.264 C 
BRANCH  14  15
ATOM     15  N   UNL     1      -3.672  -8.234   9.999  1.00  0.00    -0.331 N 
ATOM     16  C   UNL     1      -3.059  -9.530   9.477  1.00  0.00    +0.291 C 
ATOM     17  C   UNL     1      -3.193  -7.014   9.216  1.00  0.00    +0.291 C 
ATOM     18  C   UNL     1      -1.561  -9.390   9.183  1.00  0.00    +0.221 C 
ATOM     19  C   UNL     1      -1.687  -7.044   8.954  1.00  0.00    +0.221 C 
ATOM     20  O   UNL     1      -1.307  -8.273   8.327  1.00  0.00    -0.370 OA
ATOM     21  H   UNL     1      -4.659  -8.309   9.714  1.00  0.00    +0.348 HD
ENDBRANCH  14  15
ENDBRANCH  13  14
ENDBRANCH  12  13
BRANCH  12  22
ATOM     22  C   UNL     1      -5.924  -9.510  12.974  1.00  0.00    +0.100 C 
BRANCH  22  23
ATOM     23  S   UNL     1      -7.328 -10.127  13.981  1.00  0.00    -0.124 SA
BRANCH  23  24
ATOM     24  C   UNL     1      -7.849 -11.577  13.089  1.00  0.00    +0.007 A 
ATOM     25  C   UNL     1      -6.939 -12.629  12.939  1.00  0.00    +0.015 A 
ATOM     26  C   UNL     1      -9.096 -11.663  12.463  1.00  0.00    +0.015 A 
ATOM     27  C   UNL     1      -7.280 -13.764  12.199  1.00  0.00    +0.001 A 
ATOM     28  C   UNL     1      -9.441 -12.802  11.728  1.00  0.00    +0.001 A 
ATOM     29  C   UNL     1      -8.533 -13.852  11.599  1.00  0.00    +0.000 A 
ENDBRANCH  23  24
ENDBRANCH  22  23
ENDBRANCH  12  22
ENDBRANCH  10  12
ENDBRANCH   5  10
BRANCH   6  30
ATOM     30  S   UNL     1      -7.472  -9.872   8.284  1.00  0.00    +0.278 S 
ATOM     31  O   UNL     1      -6.315  -8.996   8.395  1.00  0.00    -0.214 OA
ATOM     32  O   UNL     1      -8.212  -9.930   7.028  1.00  0.00    -0.214 OA
BRANCH  30  33
ATOM     33  C   UNL     1      -7.049 -11.550   8.866  1.00  0.00    +0.501 C 
ATOM     34  F   UNL     1      -8.133 -12.379   8.868  1.00  0.00    -0.156 F 
ATOM     35  F   UNL     1      -6.564 -11.574  10.145  1.00  0.00    -0.156 F 
ATOM     36  F   UNL     1      -6.108 -12.155   8.085  1.00  0.00    -0.156 F 
ENDBRANCH  30  33
ENDBRANCH   6  30
ENDBRANCH   1   4
BRANCH   1  37
ATOM     37  N   UNL     1     -12.946 -10.913  10.374  1.00  0.00    -0.245 N 
ATOM     38  C   UNL     1     -12.855 -11.396  11.684  1.00  0.00    +0.264 C 
ATOM     39  O   UNL     1     -12.766 -10.665  12.657  1.00  0.00    -0.268 OA
ATOM     40  H   UNL     1     -13.025 -11.512   9.560  1.00  0.00    +0.183 HD
BRANCH  38  41
ATOM     41  C   UNL     1     -12.903 -12.879  11.838  1.00  0.00    +0.040 A 
ATOM     42  C   UNL     1     -13.168 -13.756  10.784  1.00  0.00    +0.016 A 
ATOM     43  C   UNL     1     -12.642 -13.413  13.105  1.00  0.00    +0.016 A 
ATOM     44  C   UNL     1     -13.150 -15.142  11.001  1.00  0.00    +0.027 A 
ATOM     45  C   UNL     1     -12.627 -14.800  13.311  1.00  0.00    +0.027 A 
ATOM     46  C   UNL     1     -12.864 -15.697  12.260  1.00  0.00    +0.037 A 
BRANCH  46  47
ATOM     47  N   UNL     1     -12.854 -17.096  12.410  1.00  0.00    -0.360 N 
ATOM     48  C   UNL     1     -12.456 -17.637  13.726  1.00  0.00    +0.178 C 
ATOM     49  C   UNL     1     -12.249 -17.802  11.254  1.00  0.00    +0.178 C 
ATOM     50  C   UNL     1     -12.776 -19.144  13.809  1.00  0.00    +0.284 C 
ATOM     51  C   UNL     1     -12.542 -19.316  11.321  1.00  0.00    +0.284 C 
ATOM     52  N   UNL     1     -12.108 -19.889  12.662  1.00  0.00    -0.329 N 
ATOM     53  H   UNL     1     -11.101 -19.718  12.752  1.00  0.00    +0.348 HD
BRANCH  52  54
ATOM     54  C   UNL     1     -12.298 -21.377  12.764  1.00  0.00    +0.295 C 
BRANCH  54  55
ATOM     55  C   UNL     1     -13.368 -21.918  11.845  1.00  0.00    -0.012 C 
ATOM     56  C   UNL     1     -13.142 -22.560  10.672  1.00  0.00    -0.036 C 
ATOM     57  C   UNL     1     -14.783 -21.728  12.371  1.00  0.00    +0.043 C 
ATOM     58  C   UNL     1     -14.249 -23.127   9.805  1.00  0.00    +0.037 C 
ATOM     59  C   UNL     1     -15.909 -21.930  11.331  1.00  0.00    -0.031 C 
ATOM     60  C   UNL     1     -15.606 -23.195  10.508  1.00  0.00    +0.011 C 
ATOM     61  C   UNL     1     -17.251 -22.109  12.064  1.00  0.00    +0.011 C 
ATOM     62  C   UNL     1     -16.025 -20.694  10.417  1.00  0.00    +0.011 C 
BRANCH  56  63
ATOM     63  C   UNL     1     -11.787 -22.767  10.128  1.00  0.00    -0.022 A 
ATOM     64  C   UNL     1     -10.974 -23.805  10.602  1.00  0.00    +0.010 A 
ATOM     65  C   UNL     1     -11.292 -21.901   9.141  1.00  0.00    +0.010 A 
ATOM     66  C   UNL     1      -9.671 -23.955  10.121  1.00  0.00    +0.021 A 
ATOM     67  C   UNL     1      -9.989 -22.052   8.662  1.00  0.00    +0.021 A 
ATOM     68  C   UNL     1      -9.181 -23.073   9.160  1.00  0.00    +0.041 A 
ATOM     69 Cl   UNL     1      -7.569 -23.239   8.592  1.00  0.00    -0.084 Cl
ENDBRANCH  56  63
ENDBRANCH  54  55
ENDBRANCH  52  54
ENDBRANCH  46  47
ENDBRANCH  38  41
ENDBRANCH   1  37
TORSDOF 17
ENDMDL
MODEL 2
REMARK VINA RESULT:    -9.883      1.983      3.203
REMARK INTER + INTRA:         -24.585
REMARK INTER:                 -19.858
REMARK INTRA:                  -4.727
REMARK UNBOUND:                -4.880
REMARK SMILES CC1(C)CCC(c2ccc(Cl)cc2)=C(C[NH+]2CCN(c3ccc(C(=O)NS(=O)(=O)c4ccc(N[C@H](CC[NH+]5CCOCC5)CSc5ccccc5)c(S(=O)(=O)C(F)(F)F)c4)cc3)CC2)C1
REMARK SMILES IDX 27 1 28 2 29 3 30 4 33 5 52 6 32 7 60 8 31 9 34 10 35 12
REMARK SMILES IDX 36 13 37 14 38 15 39 16 43 17 40 18 42 19 41 20 44 22 45 23
REMARK SMILES IDX 46 24 47 25 51 26 48 27 50 28 49 29 53 30 54 31 55 32 56 33
REMARK SMILES IDX 57 34 58 35 59 36 26 37 24 38 25 39 23 41 22 42 61 43 21 44
REMARK SMILES IDX 62 45 20 46 19 47 18 48 63 49 17 50 64 51 16 52 15 54 14 55
REMARK SMILES IDX 6 56 65 57 5 58 2 59 4 60 1 61 3 62 7 63 8 64 13 65 9 66
REMARK SMILES IDX 12 67 10 68 11 69
REMARK H PARENT 34 11 38 21 26 40 16 53
ROOT
ATOM      1  S   UNL     1     -12.849  -9.795  10.104  1.00  0.00    +0.264 S 
ATOM      2  O   UNL     1     -13.517  -9.029  11.135  1.00  0.00    -0.201 OA
ATOM      3  O   UNL     1     -13.258  -9.713   8.722  1.00  0.00    -0.201 OA
ENDROOT
BRANCH   1   4
ATOM      4  C   UNL     1     -11.128  -9.391  10.219  1.00  0.00    +0.089 A 
ATOM      5  C   UNL     1      -8.376  -8.778  10.511  1.00  0.00    +0.054 A 
ATOM      6  C   UNL     1      -8.856  -9.561   9.440  1.00  0.00    +0.101 A 
ATOM      7  C   UNL     1      -9.342  -8.223  11.362  1.00  0.00    +0.028 A 
ATOM      8  C   UNL     1     -10.210  -9.909   9.311  1.00  0.00    +0.045 A 
ATOM      9  C   UNL     1     -10.704  -8.526  11.226  1.00  0.00    +0.024 A 
BRANCH   5  10
ATOM     10  N   UNL     1      -7.009  -8.506  10.629  1.00  0.00    -0.380 N 
ATOM     11  H   UNL     1      -6.471  -9.327  10.292  1.00  0.00    +0.160 HD
BRANCH  10  12
ATOM     12  C   UNL     1      -6.387  -7.997  11.867  1.00  0.00    +0.095 C 
BRANCH  12  13
ATOM     13  C   UNL     1      -5.273  -7.016  11.422  1.00  0.00    +0.087 C 
BRANCH  13  14
ATOM     14  C   UNL     1      -4.612  -7.423  10.115  1.00  0.00    +0.264 C 
BRANCH  14  15
ATOM     15  N   UNL     1      -3.545  -8.486  10.258  1.00  0.00    -0.331 N 
ATOM     16  C   UNL     1      -2.329  -8.143  11.113  1.00  0.00    +0.291 C 
ATOM     17  C   UNL     1      -3.162  -9.237   8.986  1.00  0.00    +0.291 C 
ATOM     18  C   UNL     1      -1.158  -7.616  10.276  1.00  0.00    +0.221 C 
ATOM     19  C   UNL     1      -1.944  -8.626   8.293  1.00  0.00    +0.221 C 
ATOM     20  O   UNL     1      -0.847  -8.512   9.205  1.00  0.00    -0.370 OA
ATOM     21  H   UNL     1      -4.023  -9.212  10.811  1.00  0.00    +0.348 HD
ENDBRANCH  14  15
ENDBRANCH  13  14
ENDBRANCH  12  13
BRANCH  12  22
ATOM     22  C   UNL     1      -5.900  -9.151  12.779  1.00  0.00    +0.100 C 
BRANCH  22  23
ATOM     23  S   UNL     1      -7.193  -9.809  13.901  1.00  0.00    -0.124 SA
BRANCH  23  24
ATOM     24  C   UNL     1      -7.585 -11.386  13.175  1.00  0.00    +0.007 A 
ATOM     25  C   UNL     1      -6.564 -12.336  13.056  1.00  0.00    +0.015 A 
ATOM     26  C   UNL     1      -8.845 -11.674  12.642  1.00  0.00    +0.015 A 
ATOM     27  C   UNL     1      -6.806 -13.568  12.442  1.00  0.00    +0.001 A 
ATOM     28  C   UNL     1      -9.090 -12.909  12.033  1.00  0.00    +0.001 A 
ATOM     29  C   UNL     1      -8.071 -13.855  11.936  1.00  0.00    +0.000 A 
ENDBRANCH  23  24
ENDBRANCH  22  23
ENDBRANCH  12  22
ENDBRANCH  10  12
ENDBRANCH   5  10
BRANCH   6  30
ATOM     30  S   UNL     1      -7.725 -10.115   8.168  1.00  0.00    +0.278 S 
ATOM     31  O   UNL     1      -6.640  -9.144   8.130  1.00  0.00    -0.214 OA
ATOM     32  O   UNL     1      -8.537 -10.331   6.975  1.00  0.00    -0.214 OA
BRANCH  30  33
ATOM     33  C   UNL     1      -7.125 -11.701   8.842  1.00  0.00    +0.501 C 
ATOM     34  F   UNL     1      -6.163 -12.261   8.053  1.00  0.00    -0.156 F 
ATOM     35  F   UNL     1      -8.106 -12.648   8.956  1.00  0.00    -0.156 F 
ATOM     36  F   UNL     1      -6.571 -11.569  10.082  1.00  0.00    -0.156 F 
ENDBRANCH  30  33
ENDBRANCH   6  30
ENDBRANCH   1   4
BRANCH   1  37
ATOM     37  N   UNL     1     -12.976 -11.381  10.591  1.00  0.00    -0.245 N 
ATOM     38  C   UNL     1     -12.651 -11.846  11.870  1.00  0.00    +0.264 C 
ATOM     39  O   UNL     1     -12.432 -11.102  12.812  1.00  0.00    -0.268 OA
ATOM     40  H   UNL     1     -13.164 -11.992   9.804  1.00  0.00    +0.183 HD
BRANCH  38  41
ATOM     41  C   UNL     1     -12.612 -13.328  12.036  1.00  0.00    +0.040 A 
ATOM     42  C   UNL     1     -12.225 -13.961  13.219  1.00  0.00    +0.016 A 
ATOM     43  C   UNL     1     -13.009 -14.118  10.951  1.00  0.00    +0.016 A 
ATOM     44  C   UNL     1     -12.258 -15.361  13.311  1.00  0.00    +0.027 A 
ATOM     45  C   UNL     1     -13.037 -15.517  11.054  1.00  0.00    +0.027 A 
ATOM     46  C   UNL     1     -12.679 -16.169  12.241  1.00  0.00    +0.037 A 
BRANCH  46  47
ATOM     47  N   UNL     1     -12.696 -17.567  12.401  1.00  0.00    -0.360 N 
ATOM     48  C   UNL     1     -11.497 -18.200  12.988  1.00  0.00    +0.178 C 
ATOM     49  C   UNL     1     -13.245 -18.282  11.222  1.00  0.00    +0.178 C 
ATOM     50  C   UNL     1     -11.788 -19.669  13.358  1.00  0.00    +0.284 C 
ATOM     51  C   UNL     1     -13.531 -19.760  11.561  1.00  0.00    +0.284 C 
ATOM     52  N   UNL     1     -12.293 -20.429  12.139  1.00  0.00    -0.329 N 
ATOM     53  H   UNL     1     -11.555 -20.364  11.430  1.00  0.00    +0.348 HD
BRANCH  52  54
ATOM     54  C   UNL     1     -12.483 -21.894  12.422  1.00  0.00    +0.295 C 
BRANCH  54  55
ATOM     55  C   UNL     1     -11.614 -22.794  11.575  1.00  0.00    -0.012 C 
ATOM     56  C   UNL     1     -11.537 -24.143  11.691  1.00  0.00    -0.036 C 
ATOM     57  C   UNL     1     -10.831 -22.056  10.499  1.00  0.00    +0.043 C 
ATOM     58  C   UNL     1     -10.684 -25.010  10.785  1.00  0.00    +0.037 C 
ATOM     59  C   UNL     1      -9.676 -22.858   9.855  1.00  0.00    -0.031 C 
ATOM     60  C   UNL     1     -10.171 -24.281   9.542  1.00  0.00    +0.011 C 
ATOM     61  C   UNL     1      -9.248 -22.169   8.546  1.00  0.00    +0.011 C 
ATOM     62  C   UNL     1      -8.455 -22.894  10.796  1.00  0.00    +0.011 C 
BRANCH  56  63
ATOM     63  C   UNL     1     -12.282 -24.896  12.717  1.00  0.00    -0.022 A 
ATOM     64  C   UNL     1     -13.670 -25.062  12.620  1.00  0.00    +0.010 A 
ATOM     65  C   UNL     1     -11.600 -25.433  13.819  1.00  0.00    +0.010 A 
ATOM     66  C   UNL     1     -14.372 -25.726  13.628  1.00  0.00    +0.021 A 
ATOM     67  C   UNL     1     -12.304 -26.097  14.827  1.00  0.00    +0.021 A 
ATOM     68  C   UNL     1     -13.688 -26.234  14.731  1.00  0.00    +0.041 A 
ATOM     69 Cl   UNL     1     -14.556 -27.023  15.985  1.00  0.00    -0.084 Cl
ENDBRANCH  56  63
ENDBRANCH  54  55
ENDBRANCH  52  54
ENDBRANCH  46  47
ENDBRANCH  38  41
ENDBRANCH   1  37
TORSDOF 17
ENDMDL
MODEL 3
REMARK VINA RESULT:    -9.867      2.293      3.376
REMARK INTER + INTRA:         -24.552
REMARK INTER:                 -20.541
REMARK INTRA:                  -4.012
REMARK UNBOUND:                -4.880
REMARK SMILES CC1(C)CCC(c2ccc(Cl)cc2)=C(C[NH+]2CCN(c3ccc(C(=O)NS(=O)(=O)c4ccc(N[C@H](CC[NH+]5CCOCC5)CSc5ccccc5)c(S(=O)(=O)C(F)(F)F)c4)cc3)CC2)C1
REMARK SMILES IDX 27 1 28 2 29 3 30 4 33 5 52 6 32 7 60 8 31 9 34 10 35 12
REMARK SMILES IDX 36 13 37 14 38 15 39 16 43 17 40 18 42 19 41 20 44 22 45 23
REMARK SMILES IDX 46 24 47 25 51 26 48 27 50 28 49 29 53 30 54 31 55 32 56 33
REMARK SMILES IDX 57 34 58 35 59 36 26 37 24 38 25 39 23 41 22 42 61 43 21 44
REMARK SMILES IDX 62 45 20 46 19 47 18 48 63 49 17 50 64 51 16 52 15 54 14 55
REMARK SMILES IDX 6 56 65 57 5 58 2 59 4 60 1 61 3 62 7 63 8 64 13 65 9 66
REMARK SMILES IDX 12 67 10 68 11 69
REMARK H PARENT 34 11 38 21 26 40 16 53
ROOT
ATOM      1  S   UNL     1     -11.781 -11.951  14.641  1.00  0.00    +0.264 S 
ATOM      2  O   UNL     1     -11.500 -12.204  16.038  1.00  0.00    -0.201 OA
ATOM      3  O   UNL     1     -12.944 -11.199  14.232  1.00  0.00    -0.201 OA
ENDROOT
BRANCH   1   4
ATOM      4  C   UNL     1     -10.334 -11.179  13.973  1.00  0.00    +0.089 A 
ATOM      5  C   UNL     1      -7.970 -10.045  12.895  1.00  0.00    +0.054 A 
ATOM      6  C   UNL     1      -9.249  -9.717  12.398  1.00  0.00    +0.101 A 
ATOM      7  C   UNL     1      -7.932 -10.875  14.024  1.00  0.00    +0.028 A 
ATOM      8  C   UNL     1     -10.423 -10.306  12.893  1.00  0.00    +0.045 A 
ATOM      9  C   UNL     1      -9.097 -11.442  14.559  1.00  0.00    +0.024 A 
BRANCH   5  10
ATOM     10  N   UNL     1      -6.825  -9.475  12.328  1.00  0.00    -0.380 N 
ATOM     11  H   UNL     1      -6.893  -9.536  11.295  1.00  0.00    +0.160 HD
BRANCH  10  12
ATOM     12  C   UNL     1      -5.453  -9.827  12.744  1.00  0.00    +0.095 C 
BRANCH  12  13
ATOM     13  C   UNL     1      -4.511  -8.828  12.026  1.00  0.00    +0.087 C 
BRANCH  13  14
ATOM     14  C   UNL     1      -5.262  -7.727  11.294  1.00  0.00    +0.264 C 
BRANCH  14  15
ATOM     15  N   UNL     1      -4.817  -7.510   9.865  1.00  0.00    -0.331 N 
ATOM     16  C   UNL     1      -4.054  -8.647   9.191  1.00  0.00    +0.291 C 
ATOM     17  C   UNL     1      -4.218  -6.144   9.542  1.00  0.00    +0.291 C 
ATOM     18  C   UNL     1      -2.535  -8.471   9.292  1.00  0.00    +0.221 C 
ATOM     19  C   UNL     1      -2.692  -6.141   9.632  1.00  0.00    +0.221 C 
ATOM     20  O   UNL     1      -2.134  -7.180   8.823  1.00  0.00    -0.370 OA
ATOM     21  H   UNL     1      -5.709  -7.490   9.352  1.00  0.00    +0.348 HD
ENDBRANCH  14  15
ENDBRANCH  13  14
ENDBRANCH  12  13
BRANCH  12  22
ATOM     22  C   UNL     1      -5.137 -11.319  12.467  1.00  0.00    +0.100 C 
BRANCH  22  23
ATOM     23  S   UNL     1      -5.164 -11.767  10.688  1.00  0.00    -0.124 SA
BRANCH  23  24
ATOM     24  C   UNL     1      -6.682 -12.686  10.533  1.00  0.00    +0.007 A 
ATOM     25  C   UNL     1      -7.351 -13.066  11.701  1.00  0.00    +0.015 A 
ATOM     26  C   UNL     1      -7.177 -13.112   9.297  1.00  0.00    +0.015 A 
ATOM     27  C   UNL     1      -8.516 -13.836  11.635  1.00  0.00    +0.001 A 
ATOM     28  C   UNL     1      -8.345 -13.877   9.230  1.00  0.00    +0.001 A 
ATOM     29  C   UNL     1      -9.015 -14.236  10.399  1.00  0.00    +0.000 A 
ENDBRANCH  23  24
ENDBRANCH  22  23
ENDBRANCH  12  22
ENDBRANCH  10  12
ENDBRANCH   5  10
BRANCH   6  30
ATOM     30  S   UNL     1      -9.412  -8.481  11.113  1.00  0.00    +0.278 S 
ATOM     31  O   UNL     1      -8.422  -7.452  11.402  1.00  0.00    -0.214 OA
ATOM     32  O   UNL     1     -10.826  -8.125  11.075  1.00  0.00    -0.214 OA
BRANCH  30  33
ATOM     33  C   UNL     1      -8.934  -9.409   9.615  1.00  0.00    +0.501 C 
ATOM     34  F   UNL     1      -9.101 -10.754   9.773  1.00  0.00    -0.156 F 
ATOM     35  F   UNL     1      -7.624  -9.238   9.265  1.00  0.00    -0.156 F 
ATOM     36  F   UNL     1      -9.674  -9.060   8.523  1.00  0.00    -0.156 F 
ENDBRANCH  30  33
ENDBRANCH   6  30
ENDBRANCH   1   4
BRANCH   1  37
ATOM     37  N   UNL     1     -11.859 -13.455  13.934  1.00  0.00    -0.245 N 
ATOM     38  C   UNL     1     -12.077 -13.681  12.571  1.00  0.00    +0.264 C 
ATOM     39  O   UNL     1     -12.034 -12.792  11.735  1.00  0.00    -0.268 OA
ATOM     40  H   UNL     1     -11.887 -14.188  14.634  1.00  0.00    +0.183 HD
BRANCH  38  41
ATOM     41  C   UNL     1     -12.343 -15.094  12.176  1.00  0.00    +0.040 A 
ATOM     42  C   UNL     1     -12.706 -15.477  10.883  1.00  0.00    +0.016 A 
ATOM     43  C   UNL     1     -12.195 -16.084  13.153  1.00  0.00    +0.016 A 
ATOM     44  C   UNL     1     -12.894 -16.834  10.579  1.00  0.00    +0.027 A 
ATOM     45  C   UNL     1     -12.387 -17.438  12.838  1.00  0.00    +0.027 A 
ATOM     46  C   UNL     1     -12.724 -17.845  11.541  1.00  0.00    +0.037 A 
BRANCH  46  47
ATOM     47  N   UNL     1     -12.922 -19.188  11.170  1.00  0.00    -0.360 N 
ATOM     48  C   UNL     1     -13.966 -19.946  11.889  1.00  0.00    +0.178 C 
ATOM     49  C   UNL     1     -11.653 -19.933  10.979  1.00  0.00    +0.178 C 
ATOM     50  C   UNL     1     -14.250 -21.285  11.175  1.00  0.00    +0.284 C 
ATOM     51  C   UNL     1     -11.911 -21.285  10.280  1.00  0.00    +0.284 C 
ATOM     52  N   UNL     1     -12.964 -22.087  11.030  1.00  0.00    -0.329 N 
ATOM     53  H   UNL     1     -12.608 -22.240  11.979  1.00  0.00    +0.348 HD
BRANCH  52  54
ATOM     54  C   UNL     1     -13.208 -23.449  10.441  1.00  0.00    +0.295 C 
BRANCH  54  55
ATOM     55  C   UNL     1     -12.797 -24.585  11.348  1.00  0.00    -0.012 C 
ATOM     56  C   UNL     1     -11.529 -25.037  11.512  1.00  0.00    -0.036 C 
ATOM     57  C   UNL     1     -13.948 -25.184  12.142  1.00  0.00    +0.043 C 
ATOM     58  C   UNL     1     -11.159 -26.151  12.470  1.00  0.00    +0.037 C 
ATOM     59  C   UNL     1     -13.658 -26.554  12.798  1.00  0.00    -0.031 C 
ATOM     60  C   UNL     1     -12.269 -26.504  13.461  1.00  0.00    +0.011 C 
ATOM     61  C   UNL     1     -14.724 -26.839  13.872  1.00  0.00    +0.011 C 
ATOM     62  C   UNL     1     -13.726 -27.679  11.747  1.00  0.00    +0.011 C 
BRANCH  56  63
ATOM     63  C   UNL     1     -10.385 -24.483  10.764  1.00  0.00    -0.022 A 
ATOM     64  C   UNL     1     -10.227 -24.744   9.396  1.00  0.00    +0.010 A 
ATOM     65  C   UNL     1      -9.426 -23.706  11.431  1.00  0.00    +0.010 A 
ATOM     66  C   UNL     1      -9.108 -24.263   8.712  1.00  0.00    +0.021 A 
ATOM     67  C   UNL     1      -8.308 -23.226  10.745  1.00  0.00    +0.021 A 
ATOM     68  C   UNL     1      -8.150 -23.513   9.390  1.00  0.00    +0.041 A 
ATOM     69 Cl   UNL     1      -6.759 -22.949   8.555  1.00  0.00    -0.084 Cl
ENDBRANCH  56  63
ENDBRANCH  54  55
ENDBRANCH  52  54
ENDBRANCH  46  47
ENDBRANCH  38  41
ENDBRANCH   1  37
TORSDOF 17
ENDMDL
MODEL 4
REMARK VINA RESULT:    -9.608      1.674      3.242
REMARK INTER + INTRA:         -24.036
REMARK INTER:                 -19.909
REMARK INTRA:                  -4.127
REMARK UNBOUND:                -4.880
REMARK SMILES CC1(C)CCC(c2ccc(Cl)cc2)=C(C[NH+]2CCN(c3ccc(C(=O)NS(=O)(=O)c4ccc(N[C@H](CC[NH+]5CCOCC5)CSc5ccccc5)c(S(=O)(=O)C(F)(F)F)c4)cc3)CC2)C1
REMARK SMILES IDX 27 1 28 2 29 3 30 4 33 5 52 6 32 7 60 8 31 9 34 10 35 12
REMARK SMILES IDX 36 13 37 14 38 15 39 16 43 17 40 18 42 19 41 20 44 22 45 23
REMARK SMILES IDX 46 24 47 25 51 26 48 27 50 28 49 29 53 30 54 31 55 32 56 33
REMARK SMILES IDX 57 34 58 35 59 36 26 37 24 38 25 39 23 41 22 42 61 43 21 44
REMARK SMILES IDX 62 45 20 46 19 47 18 48 63 49 17 50 64 51 16 52 15 54 14 55
REMARK SMILES IDX 6 56 65 57 5 58 2 59 4 60 1 61 3 62 7 63 8 64 13 65 9 66
REMARK SMILES IDX 12 67 10 68 11 69
REMARK H PARENT 34 11 38 21 26 40 16 53
ROOT
ATOM      1  S   UNL     1     -12.673  -9.487  10.039  1.00  0.00    +0.264 S 
ATOM      2  O   UNL     1     -13.346  -8.733  11.074  1.00  0.00    -0.201 OA
ATOM      3  O   UNL     1     -13.049  -9.361   8.650  1.00  0.00    -0.201 OA
ENDROOT
BRANCH   1   4
ATOM      4  C   UNL     1     -10.947  -9.124  10.200  1.00  0.00    +0.089 A 
ATOM      5  C   UNL     1      -8.189  -8.577  10.568  1.00  0.00    +0.054 A 
ATOM      6  C   UNL     1      -8.660  -9.343   9.480  1.00  0.00    +0.101 A 
ATOM      7  C   UNL     1      -9.164  -8.004  11.397  1.00  0.00    +0.028 A 
ATOM      8  C   UNL     1     -10.018  -9.658   9.313  1.00  0.00    +0.045 A 
ATOM      9  C   UNL     1     -10.528  -8.275  11.223  1.00  0.00    +0.024 A 
BRANCH   5  10
ATOM     10  N   UNL     1      -6.820  -8.338  10.723  1.00  0.00    -0.380 N 
ATOM     11  H   UNL     1      -6.291  -9.151  10.355  1.00  0.00    +0.160 HD
BRANCH  10  12
ATOM     12  C   UNL     1      -6.211  -7.902  11.994  1.00  0.00    +0.095 C 
BRANCH  12  13
ATOM     13  C   UNL     1      -5.035  -6.967  11.616  1.00  0.00    +0.087 C 
BRANCH  13  14
ATOM     14  C   UNL     1      -4.345  -7.377  10.324  1.00  0.00    +0.264 C 
BRANCH  14  15
ATOM     15  N   UNL     1      -3.263  -8.421  10.497  1.00  0.00    -0.331 N 
ATOM     16  C   UNL     1      -1.945  -7.964  11.114  1.00  0.00    +0.291 C 
ATOM     17  C   UNL     1      -3.051  -9.376   9.325  1.00  0.00    +0.291 C 
ATOM     18  C   UNL     1      -0.899  -7.602  10.053  1.00  0.00    +0.221 C 
ATOM     19  C   UNL     1      -1.940  -8.908   8.386  1.00  0.00    +0.221 C 
ATOM     20  O   UNL     1      -0.731  -8.666   9.112  1.00  0.00    -0.370 OA
ATOM     21  H   UNL     1      -3.660  -9.038  11.220  1.00  0.00    +0.348 HD
ENDBRANCH  14  15
ENDBRANCH  13  14
ENDBRANCH  12  13
BRANCH  12  22
ATOM     22  C   UNL     1      -5.813  -9.109  12.881  1.00  0.00    +0.100 C 
BRANCH  22  23
ATOM     23  S   UNL     1      -7.195  -9.789  13.877  1.00  0.00    -0.124 SA
BRANCH  23  24
ATOM     24  C   UNL     1      -7.548 -11.333  13.065  1.00  0.00    +0.007 A 
ATOM     25  C   UNL     1      -8.842 -11.549  12.579  1.00  0.00    +0.015 A 
ATOM     26  C   UNL     1      -6.608 -12.365  12.976  1.00  0.00    +0.015 A 
ATOM     27  C   UNL     1      -9.184 -12.767  11.984  1.00  0.00    +0.001 A 
ATOM     28  C   UNL     1      -6.948 -13.581  12.375  1.00  0.00    +0.001 A 
ATOM     29  C   UNL     1      -8.235 -13.780  11.878  1.00  0.00    +0.000 A 
ENDBRANCH  23  24
ENDBRANCH  22  23
ENDBRANCH  12  22
ENDBRANCH  10  12
ENDBRANCH   5  10
BRANCH   6  30
ATOM     30  S   UNL     1      -7.509  -9.916   8.233  1.00  0.00    +0.278 S 
ATOM     31  O   UNL     1      -6.362  -9.019   8.288  1.00  0.00    -0.214 OA
ATOM     32  O   UNL     1      -8.277 -10.025   6.998  1.00  0.00    -0.214 OA
BRANCH  30  33
ATOM     33  C   UNL     1      -7.046 -11.567   8.859  1.00  0.00    +0.501 C 
ATOM     34  F   UNL     1      -6.170 -12.202   8.027  1.00  0.00    -0.156 F 
ATOM     35  F   UNL     1      -8.110 -12.415   8.992  1.00  0.00    -0.156 F 
ATOM     36  F   UNL     1      -6.440 -11.514  10.080  1.00  0.00    -0.156 F 
ENDBRANCH  30  33
ENDBRANCH   6  30
ENDBRANCH   1   4
BRANCH   1  37
ATOM     37  N   UNL     1     -12.844 -11.082  10.483  1.00  0.00    -0.245 N 
ATOM     38  C   UNL     1     -12.684 -11.564  11.786  1.00  0.00    +0.264 C 
ATOM     39  O   UNL     1     -12.599 -10.832  12.759  1.00  0.00    -0.268 OA
ATOM     40  H   UNL     1     -12.920 -11.682   9.669  1.00  0.00    +0.183 HD
BRANCH  38  41
ATOM     41  C   UNL     1     -12.650 -13.047  11.934  1.00  0.00    +0.040 A 
ATOM     42  C   UNL     1     -12.337 -13.695  13.132  1.00  0.00    +0.016 A 
ATOM     43  C   UNL     1     -12.974 -13.824  10.816  1.00  0.00    +0.016 A 
ATOM     44  C   UNL     1     -12.371 -15.096  13.203  1.00  0.00    +0.027 A 
ATOM     45  C   UNL     1     -13.003 -15.224  10.899  1.00  0.00    +0.027 A 
ATOM     46  C   UNL     1     -12.720 -15.891  12.098  1.00  0.00    +0.037 A 
BRANCH  46  47
ATOM     47  N   UNL     1     -12.742 -17.291  12.237  1.00  0.00    -0.360 N 
ATOM     48  C   UNL     1     -12.239 -17.857  13.506  1.00  0.00    +0.178 C 
ATOM     49  C   UNL     1     -12.272 -18.005  11.025  1.00  0.00    +0.178 C 
ATOM     50  C   UNL     1     -12.599 -19.354  13.610  1.00  0.00    +0.284 C 
ATOM     51  C   UNL     1     -12.606 -19.510  11.111  1.00  0.00    +0.284 C 
ATOM     52  N   UNL     1     -12.066 -20.109  12.400  1.00  0.00    -0.329 N 
ATOM     53  H   UNL     1     -11.050 -19.970  12.396  1.00  0.00    +0.348 HD
BRANCH  52  54
ATOM     54  C   UNL     1     -12.293 -21.591  12.511  1.00  0.00    +0.295 C 
BRANCH  54  55
ATOM     55  C   UNL     1     -12.387 -22.292  11.175  1.00  0.00    -0.012 C 
ATOM     56  C   UNL     1     -13.539 -22.688  10.579  1.00  0.00    -0.036 C 
ATOM     57  C   UNL     1     -11.044 -22.490  10.490  1.00  0.00    +0.043 C 
ATOM     58  C   UNL     1     -13.586 -23.347   9.214  1.00  0.00    +0.037 C 
ATOM     59  C   UNL     1     -11.040 -23.500   9.319  1.00  0.00    -0.031 C 
ATOM     60  C   UNL     1     -12.274 -23.242   8.435  1.00  0.00    +0.011 C 
ATOM     61  C   UNL     1      -9.764 -23.303   8.481  1.00  0.00    +0.011 C 
ATOM     62  C   UNL     1     -11.040 -24.946   9.856  1.00  0.00    +0.011 C 
BRANCH  56  63
ATOM     63  C   UNL     1     -14.861 -22.513  11.208  1.00  0.00    -0.022 A 
ATOM     64  C   UNL     1     -15.922 -21.935  10.498  1.00  0.00    +0.010 A 
ATOM     65  C   UNL     1     -15.057 -22.904  12.540  1.00  0.00    +0.010 A 
ATOM     66  C   UNL     1     -17.153 -21.720  11.123  1.00  0.00    +0.021 A 
ATOM     67  C   UNL     1     -16.288 -22.688  13.164  1.00  0.00    +0.021 A 
ATOM     68  C   UNL     1     -17.328 -22.090  12.455  1.00  0.00    +0.041 A 
ATOM     69 Cl   UNL     1     -18.832 -21.797  13.231  1.00  0.00    -0.084 Cl
ENDBRANCH  56  63
ENDBRANCH  54  55
ENDBRANCH  52  54
ENDBRANCH  46  47
ENDBRANCH  38  41
ENDBRANCH   1  37
TORSDOF 17
ENDMDL
MODEL 5
REMARK VINA RESULT:    -9.485      1.839      2.495
REMARK INTER + INTRA:         -23.792
REMARK INTER:                 -19.280
REMARK INTRA:                  -4.512
REMARK UNBOUND:                -4.880
REMARK SMILES CC1(C)CCC(c2ccc(Cl)cc2)=C(C[NH+]2CCN(c3ccc(C(=O)NS(=O)(=O)c4ccc(N[C@H](CC[NH+]5CCOCC5)CSc5ccccc5)c(S(=O)(=O)C(F)(F)F)c4)cc3)CC2)C1
REMARK SMILES IDX 27 1 28 2 29 3 30 4 33 5 52 6 32 7 60 8 31 9 34 10 35 12
REMARK SMILES IDX 36 13 37 14 38 15 39 16 43 17 40 18 42 19 41 20 44 22 45 23
REMARK SMILES IDX 46 24 47 25 51 26 48 27 50 28 49 29 53 30 54 31 55 32 56 33
REMARK SMILES IDX 57 34 58 35 59 36 26 37 24 38 25 39 23 41 22 42 61 43 21 44
REMARK SMILES IDX 62 45 20 46 19 47 18 48 63 49 17 50 64 51 16 52 15 54 14 55
REMARK SMILES IDX 6 56 65 57 5 58 2 59 4 60 1 61 3 62 7 63 8 64 13 65 9 66
REMARK SMILES IDX 12 67 10 68 11 69
REMARK H PARENT 34 11 38 21 26 40 16 53
ROOT
ATOM      1  S   UNL     1     -12.626  -9.414  10.018  1.00  0.00    +0.264 S 
ATOM      2  O   UNL     1     -13.376  -8.614  10.963  1.00  0.00    -0.201 OA
ATOM      3  O   UNL     1     -12.868  -9.323   8.597  1.00  0.00    -0.201 OA
ENDROOT
BRANCH   1   4
ATOM      4  C   UNL     1     -10.914  -9.081  10.330  1.00  0.00    +0.089 A 
ATOM      5  C   UNL     1      -8.159  -8.537  10.717  1.00  0.00    +0.054 A 
ATOM      6  C   UNL     1      -9.163  -7.856  11.439  1.00  0.00    +0.101 A 
ATOM      7  C   UNL     1      -8.587  -9.577   9.880  1.00  0.00    +0.028 A 
ATOM      8  C   UNL     1     -10.531  -8.084  11.222  1.00  0.00    +0.045 A 
ATOM      9  C   UNL     1      -9.948  -9.847   9.681  1.00  0.00    +0.024 A 
BRANCH   5  10
ATOM     10  N   UNL     1      -6.810  -8.233  10.927  1.00  0.00    -0.380 N 
ATOM     11  H   UNL     1      -6.362  -8.037  10.012  1.00  0.00    +0.160 HD
BRANCH  10  12
ATOM     12  C   UNL     1      -5.906  -9.071  11.738  1.00  0.00    +0.095 C 
BRANCH  12  13
ATOM     13  C   UNL     1      -4.751  -8.146  12.198  1.00  0.00    +0.087 C 
BRANCH  13  14
ATOM     14  C   UNL     1      -3.380  -8.666  11.797  1.00  0.00    +0.264 C 
BRANCH  14  15
ATOM     15  N   UNL     1      -2.725  -7.898  10.669  1.00  0.00    -0.331 N 
ATOM     16  C   UNL     1      -3.595  -7.550   9.465  1.00  0.00    +0.291 C 
ATOM     17  C   UNL     1      -1.329  -8.358  10.258  1.00  0.00    +0.291 C 
ATOM     18  C   UNL     1      -3.465  -8.577   8.335  1.00  0.00    +0.221 C 
ATOM     19  C   UNL     1      -1.360  -9.337   9.084  1.00  0.00    +0.221 C 
ATOM     20  O   UNL     1      -2.094  -8.788   7.986  1.00  0.00    -0.370 OA
ATOM     21  H   UNL     1      -2.541  -6.981  11.099  1.00  0.00    +0.348 HD
ENDBRANCH  14  15
ENDBRANCH  13  14
ENDBRANCH  12  13
BRANCH  12  22
ATOM     22  C   UNL     1      -5.448 -10.333  10.963  1.00  0.00    +0.100 C 
BRANCH  22  23
ATOM     23  S   UNL     1      -5.437 -11.863  11.976  1.00  0.00    -0.124 SA
BRANCH  23  24
ATOM     24  C   UNL     1      -6.892 -12.722  11.413  1.00  0.00    +0.007 A 
ATOM     25  C   UNL     1      -7.036 -12.958  10.042  1.00  0.00    +0.015 A 
ATOM     26  C   UNL     1      -7.928 -13.087  12.278  1.00  0.00    +0.015 A 
ATOM     27  C   UNL     1      -8.186 -13.577   9.544  1.00  0.00    +0.001 A 
ATOM     28  C   UNL     1      -9.075 -13.712  11.782  1.00  0.00    +0.001 A 
ATOM     29  C   UNL     1      -9.202 -13.959  10.416  1.00  0.00    +0.000 A 
ENDBRANCH  23  24
ENDBRANCH  22  23
ENDBRANCH  12  22
ENDBRANCH  10  12
ENDBRANCH   5  10
BRANCH   6  30
ATOM     30  S   UNL     1      -8.702  -6.677  12.705  1.00  0.00    +0.278 S 
ATOM     31  O   UNL     1      -9.888  -5.878  12.976  1.00  0.00    -0.214 OA
ATOM     32  O   UNL     1      -7.490  -6.023  12.223  1.00  0.00    -0.214 OA
BRANCH  30  33
ATOM     33  C   UNL     1      -8.334  -7.758  14.129  1.00  0.00    +0.501 C 
ATOM     34  F   UNL     1      -9.022  -7.385  15.247  1.00  0.00    -0.156 F 
ATOM     35  F   UNL     1      -7.015  -7.751  14.489  1.00  0.00    -0.156 F 
ATOM     36  F   UNL     1      -8.663  -9.062  13.898  1.00  0.00    -0.156 F 
ENDBRANCH  30  33
ENDBRANCH   6  30
ENDBRANCH   1   4
BRANCH   1  37
ATOM     37  N   UNL     1     -12.874 -10.990  10.489  1.00  0.00    -0.245 N 
ATOM     38  C   UNL     1     -12.567 -11.496  11.757  1.00  0.00    +0.264 C 
ATOM     39  O   UNL     1     -12.273 -10.784  12.703  1.00  0.00    -0.268 OA
ATOM     40  H   UNL     1     -13.125 -11.573   9.699  1.00  0.00    +0.183 HD
BRANCH  38  41
ATOM     41  C   UNL     1     -12.647 -12.978  11.906  1.00  0.00    +0.040 A 
ATOM     42  C   UNL     1     -13.016 -13.838  10.869  1.00  0.00    +0.016 A 
ATOM     43  C   UNL     1     -12.310 -13.529  13.147  1.00  0.00    +0.016 A 
ATOM     44  C   UNL     1     -13.023 -15.226  11.076  1.00  0.00    +0.027 A 
ATOM     45  C   UNL     1     -12.321 -14.918  13.343  1.00  0.00    +0.027 A 
ATOM     46  C   UNL     1     -12.661 -15.799  12.307  1.00  0.00    +0.037 A 
BRANCH  46  47
ATOM     47  N   UNL     1     -12.683 -17.199  12.448  1.00  0.00    -0.360 N 
ATOM     48  C   UNL     1     -12.354 -17.755  13.777  1.00  0.00    +0.178 C 
ATOM     49  C   UNL     1     -12.038 -17.908  11.316  1.00  0.00    +0.178 C 
ATOM     50  C   UNL     1     -12.704 -19.257  13.836  1.00  0.00    +0.284 C 
ATOM     51  C   UNL     1     -12.359 -19.418  11.360  1.00  0.00    +0.284 C 
ATOM     52  N   UNL     1     -11.997 -20.006  12.715  1.00  0.00    -0.329 N 
ATOM     53  H   UNL     1     -10.992 -19.853  12.852  1.00  0.00    +0.348 HD
BRANCH  52  54
ATOM     54  C   UNL     1     -12.216 -21.492  12.798  1.00  0.00    +0.295 C 
BRANCH  54  55
ATOM     55  C   UNL     1     -13.309 -21.996  11.884  1.00  0.00    -0.012 C 
ATOM     56  C   UNL     1     -13.109 -22.636  10.705  1.00  0.00    -0.036 C 
ATOM     57  C   UNL     1     -14.713 -21.773  12.425  1.00  0.00    +0.043 C 
ATOM     58  C   UNL     1     -14.239 -23.166   9.844  1.00  0.00    +0.037 C 
ATOM     59  C   UNL     1     -15.853 -21.937  11.393  1.00  0.00    -0.031 C 
ATOM     60  C   UNL     1     -15.590 -23.204  10.558  1.00  0.00    +0.011 C 
ATOM     61  C   UNL     1     -17.193 -22.086  12.136  1.00  0.00    +0.011 C 
ATOM     62  C   UNL     1     -15.944 -20.691  10.488  1.00  0.00    +0.011 C 
BRANCH  56  63
ATOM     63  C   UNL     1     -11.765 -22.875  10.148  1.00  0.00    -0.022 A 
ATOM     64  C   UNL     1     -10.955 -23.906  10.643  1.00  0.00    +0.010 A 
ATOM     65  C   UNL     1     -11.276 -22.046   9.127  1.00  0.00    +0.010 A 
ATOM     66  C   UNL     1      -9.662 -24.085  10.147  1.00  0.00    +0.021 A 
ATOM     67  C   UNL     1      -9.982 -22.226   8.633  1.00  0.00    +0.021 A 
ATOM     68  C   UNL     1      -9.177 -23.240   9.151  1.00  0.00    +0.041 A 
ATOM     69 Cl   UNL     1      -7.576 -23.441   8.565  1.00  0.00    -0.084 Cl
ENDBRANCH  56  63
ENDBRANCH  54  55
ENDBRANCH  52  54
ENDBRANCH  46  47
ENDBRANCH  38  41
ENDBRANCH   1  37
TORSDOF 17
ENDMDL
MODEL 6
REMARK VINA RESULT:    -9.459      2.323      3.453
REMARK INTER + INTRA:         -23.740
REMARK INTER:                 -19.474
REMARK INTRA:                  -4.266
REMARK UNBOUND:                -4.880
REMARK SMILES CC1(C)CCC(c2ccc(Cl)cc2)=C(C[NH+]2CCN(c3ccc(C(=O)NS(=O)(=O)c4ccc(N[C@H](CC[NH+]5CCOCC5)CSc5ccccc5)c(S(=O)(=O)C(F)(F)F)c4)cc3)CC2)C1
REMARK SMILES IDX 27 1 28 2 29 3 30 4 33 5 52 6 32 7 60 8 31 9 34 10 35 12
REMARK SMILES IDX 36 13 37 14 38 15 39 16 43 17 40 18 42 19 41 20 44 22 45 23
REMARK SMILES IDX 46 24 47 25 51 26 48 27 50 28 49 29 53 30 54 31 55 32 56 33
REMARK SMILES IDX 57 34 58 35 59 36 26 37 24 38 25 39 23 41 22 42 61 43 21 44
REMARK SMILES IDX 62 45 20 46 19 47 18 48 63 49 17 50 64 51 16 52 15 54 14 55
REMARK SMILES IDX 6 56 65 57 5 58 2 59 4 60 1 61 3 62 7 63 8 64 13 65 9 66
REMARK SMILES IDX 12 67 10 68 11 69
REMARK H PARENT 34 11 38 21 26 40 16 53
ROOT
ATOM      1  S   UNL     1     -12.537 -11.009  11.598  1.00  0.00    +0.264 S 
ATOM      2  O   UNL     1     -12.589 -10.730  13.016  1.00  0.00    -0.201 OA
ATOM      3  O   UNL     1     -13.382 -10.308  10.660  1.00  0.00    -0.201 OA
ENDROOT
BRANCH   1   4
ATOM      4  C   UNL     1     -10.846 -10.802  11.111  1.00  0.00    +0.089 A 
ATOM      5  C   UNL     1      -8.135 -10.379  10.398  1.00  0.00    +0.054 A 
ATOM      6  C   UNL     1      -8.607 -11.638  10.825  1.00  0.00    +0.101 A 
ATOM      7  C   UNL     1      -9.098  -9.373  10.236  1.00  0.00    +0.028 A 
ATOM      8  C   UNL     1      -9.936 -11.849  11.224  1.00  0.00    +0.045 A 
ATOM      9  C   UNL     1     -10.439  -9.575  10.591  1.00  0.00    +0.024 A 
BRANCH   5  10
ATOM     10  N   UNL     1      -6.787 -10.205  10.067  1.00  0.00    -0.380 N 
ATOM     11  H   UNL     1      -6.240 -10.997  10.453  1.00  0.00    +0.160 HD
BRANCH  10  12
ATOM     12  C   UNL     1      -6.050  -8.948  10.302  1.00  0.00    +0.095 C 
BRANCH  12  13
ATOM     13  C   UNL     1      -5.247  -8.667   9.006  1.00  0.00    +0.087 C 
BRANCH  13  14
ATOM     14  C   UNL     1      -3.895  -9.361   8.985  1.00  0.00    +0.264 C 
BRANCH  14  15
ATOM     15  N   UNL     1      -2.720  -8.436   8.754  1.00  0.00    -0.331 N 
ATOM     16  C   UNL     1      -1.325  -9.044   8.842  1.00  0.00    +0.291 C 
ATOM     17  C   UNL     1      -2.795  -7.067   9.426  1.00  0.00    +0.291 C 
ATOM     18  C   UNL     1      -0.700  -8.875  10.231  1.00  0.00    +0.221 C 
ATOM     19  C   UNL     1      -2.081  -7.041  10.778  1.00  0.00    +0.221 C 
ATOM     20  O   UNL     1      -0.734  -7.508  10.648  1.00  0.00    -0.370 OA
ATOM     21  H   UNL     1      -2.813  -8.200   7.756  1.00  0.00    +0.348 HD
ENDBRANCH  14  15
ENDBRANCH  13  14
ENDBRANCH  12  13
BRANCH  12  22
ATOM     22  C   UNL     1      -5.188  -9.022  11.588  1.00  0.00    +0.100 C 
BRANCH  22  23
ATOM     23  S   UNL     1      -5.476  -7.637  12.756  1.00  0.00    -0.124 SA
BRANCH  23  24
ATOM     24  C   UNL     1      -7.238  -7.688  13.005  1.00  0.00    +0.007 A 
ATOM     25  C   UNL     1      -8.007  -6.615  12.540  1.00  0.00    +0.015 A 
ATOM     26  C   UNL     1      -7.865  -8.712  13.721  1.00  0.00    +0.015 A 
ATOM     27  C   UNL     1      -9.387  -6.580  12.761  1.00  0.00    +0.001 A 
ATOM     28  C   UNL     1      -9.246  -8.682  13.937  1.00  0.00    +0.001 A 
ATOM     29  C   UNL     1     -10.006  -7.617  13.454  1.00  0.00    +0.000 A 
ENDBRANCH  23  24
ENDBRANCH  22  23
ENDBRANCH  12  22
ENDBRANCH  10  12
ENDBRANCH   5  10
BRANCH   6  30
ATOM     30  S   UNL     1      -7.498 -13.045  10.835  1.00  0.00    +0.278 S 
ATOM     31  O   UNL     1      -6.671 -12.926   9.642  1.00  0.00    -0.214 OA
ATOM     32  O   UNL     1      -8.344 -14.221  11.009  1.00  0.00    -0.214 OA
BRANCH  30  33
ATOM     33  C   UNL     1      -6.494 -12.740  12.329  1.00  0.00    +0.501 C 
ATOM     34  F   UNL     1      -7.132 -11.923  13.216  1.00  0.00    -0.156 F 
ATOM     35  F   UNL     1      -5.298 -12.134  12.064  1.00  0.00    -0.156 F 
ATOM     36  F   UNL     1      -6.204 -13.887  13.009  1.00  0.00    -0.156 F 
ENDBRANCH  30  33
ENDBRANCH   6  30
ENDBRANCH   1   4
BRANCH   1  37
ATOM     37  N   UNL     1     -12.850 -12.638  11.464  1.00  0.00    -0.245 N 
ATOM     38  C   UNL     1     -12.500 -13.594  12.423  1.00  0.00    +0.264 C 
ATOM     39  O   UNL     1     -12.108 -13.302  13.541  1.00  0.00    -0.268 OA
ATOM     40  H   UNL     1     -13.182 -12.872  10.535  1.00  0.00    +0.183 HD
BRANCH  38  41
ATOM     41  C   UNL     1     -12.660 -15.020  12.013  1.00  0.00    +0.040 A 
ATOM     42  C   UNL     1     -11.811 -15.661  11.109  1.00  0.00    +0.016 A 
ATOM     43  C   UNL     1     -13.704 -15.752  12.589  1.00  0.00    +0.016 A 
ATOM     44  C   UNL     1     -12.000 -17.019  10.809  1.00  0.00    +0.027 A 
ATOM     45  C   UNL     1     -13.885 -17.108  12.281  1.00  0.00    +0.027 A 
ATOM     46  C   UNL     1     -13.026 -17.777  11.398  1.00  0.00    +0.037 A 
BRANCH  46  47
ATOM     47  N   UNL     1     -13.158 -19.137  11.060  1.00  0.00    -0.360 N 
ATOM     48  C   UNL     1     -14.169 -19.926  11.793  1.00  0.00    +0.178 C 
ATOM     49  C   UNL     1     -11.854 -19.825  10.893  1.00  0.00    +0.178 C 
ATOM     50  C   UNL     1     -14.385 -21.294  11.112  1.00  0.00    +0.284 C 
ATOM     51  C   UNL     1     -12.044 -21.205  10.227  1.00  0.00    +0.284 C 
ATOM     52  N   UNL     1     -13.062 -22.037  10.992  1.00  0.00    -0.329 N 
ATOM     53  H   UNL     1     -12.704 -22.149  11.947  1.00  0.00    +0.348 HD
BRANCH  52  54
ATOM     54  C   UNL     1     -13.237 -23.423  10.437  1.00  0.00    +0.295 C 
BRANCH  54  55
ATOM     55  C   UNL     1     -12.814 -24.517  11.390  1.00  0.00    -0.012 C 
ATOM     56  C   UNL     1     -11.540 -24.942  11.577  1.00  0.00    -0.036 C 
ATOM     57  C   UNL     1     -13.960 -25.104  12.200  1.00  0.00    +0.043 C 
ATOM     58  C   UNL     1     -11.158 -26.013  12.580  1.00  0.00    +0.037 C 
ATOM     59  C   UNL     1     -13.652 -26.443  12.909  1.00  0.00    -0.031 C 
ATOM     60  C   UNL     1     -12.269 -26.345  13.577  1.00  0.00    +0.011 C 
ATOM     61  C   UNL     1     -14.720 -26.704  13.986  1.00  0.00    +0.011 C 
ATOM     62  C   UNL     1     -13.695 -27.609  11.901  1.00  0.00    +0.011 C 
BRANCH  56  63
ATOM     63  C   UNL     1     -10.400 -24.398  10.815  1.00  0.00    -0.022 A 
ATOM     64  C   UNL     1     -10.237 -24.698   9.456  1.00  0.00    +0.010 A 
ATOM     65  C   UNL     1      -9.451 -23.592  11.460  1.00  0.00    +0.010 A 
ATOM     66  C   UNL     1      -9.123 -24.226   8.759  1.00  0.00    +0.021 A 
ATOM     67  C   UNL     1      -8.336 -23.121  10.762  1.00  0.00    +0.021 A 
ATOM     68  C   UNL     1      -8.173 -23.447   9.417  1.00  0.00    +0.041 A 
ATOM     69 Cl   UNL     1      -6.787 -22.893   8.568  1.00  0.00    -0.084 Cl
ENDBRANCH  56  63
ENDBRANCH  54  55
ENDBRANCH  52  54
ENDBRANCH  46  47
ENDBRANCH  38  41
ENDBRANCH   1  37
TORSDOF 17
ENDMDL
MODEL 7
REMARK VINA RESULT:    -9.301      5.754     14.035
REMARK INTER + INTRA:         -23.425
REMARK INTER:                 -20.762
REMARK INTRA:                  -2.663
REMARK UNBOUND:                -4.880
REMARK SMILES CC1(C)CCC(c2ccc(Cl)cc2)=C(C[NH+]2CCN(c3ccc(C(=O)NS(=O)(=O)c4ccc(N[C@H](CC[NH+]5CCOCC5)CSc5ccccc5)c(S(=O)(=O)C(F)(F)F)c4)cc3)CC2)C1
REMARK SMILES IDX 27 1 28 2 29 3 30 4 33 5 52 6 32 7 60 8 31 9 34 10 35 12
REMARK SMILES IDX 36 13 37 14 38 15 39 16 43 17 40 18 42 19 41 20 44 22 45 23
REMARK SMILES IDX 46 24 47 25 51 26 48 27 50 28 49 29 53 30 54 31 55 32 56 33
REMARK SMILES IDX 57 34 58 35 59 36 26 37 24 38 25 39 23 41 22 42 61 43 21 44
REMARK SMILES IDX 62 45 20 46 19 47 18 48 63 49 17 50 64 51 16 52 15 54 14 55
REMARK SMILES IDX 6 56 65 57 5 58 2 59 4 60 1 61 3 62 7 63 8 64 13 65 9 66
REMARK SMILES IDX 12 67 10 68 11 69
REMARK H PARENT 34 11 38 21 26 40 16 53
ROOT
ATOM      1  S   UNL     1     -15.632 -17.017  13.298  1.00  0.00    +0.264 S 
ATOM      2  O   UNL     1     -16.527 -16.346  12.381  1.00  0.00    -0.201 OA
ATOM      3  O   UNL     1     -15.876 -17.019  14.722  1.00  0.00    -0.201 OA
ENDROOT
BRANCH   1   4
ATOM      4  C   UNL     1     -15.505 -18.692  12.736  1.00  0.00    +0.089 A 
ATOM      5  C   UNL     1     -15.236 -21.337  11.750  1.00  0.00    +0.054 A 
ATOM      6  C   UNL     1     -15.026 -21.022  13.110  1.00  0.00    +0.101 A 
ATOM      7  C   UNL     1     -15.695 -20.296  10.931  1.00  0.00    +0.028 A 
ATOM      8  C   UNL     1     -15.112 -19.709  13.600  1.00  0.00    +0.045 A 
ATOM      9  C   UNL     1     -15.825 -18.985  11.411  1.00  0.00    +0.024 A 
BRANCH   5  10
ATOM     10  N   UNL     1     -15.082 -22.652  11.299  1.00  0.00    -0.380 N 
ATOM     11  H   UNL     1     -14.816 -23.255  12.100  1.00  0.00    +0.160 HD
BRANCH  10  12
ATOM     12  C   UNL     1     -14.262 -23.016  10.127  1.00  0.00    +0.095 C 
BRANCH  12  13
ATOM     13  C   UNL     1     -14.312 -24.561  10.024  1.00  0.00    +0.087 C 
BRANCH  13  14
ATOM     14  C   UNL     1     -13.736 -25.255  11.248  1.00  0.00    +0.264 C 
BRANCH  14  15
ATOM     15  N   UNL     1     -12.701 -26.314  10.936  1.00  0.00    -0.331 N 
ATOM     16  C   UNL     1     -13.213 -27.686  10.508  1.00  0.00    +0.291 C 
ATOM     17  C   UNL     1     -11.523 -26.415  11.902  1.00  0.00    +0.291 C 
ATOM     18  C   UNL     1     -13.311 -28.665  11.683  1.00  0.00    +0.221 C 
ATOM     19  C   UNL     1     -11.746 -27.471  12.984  1.00  0.00    +0.221 C 
ATOM     20  O   UNL     1     -12.075 -28.734  12.399  1.00  0.00    -0.370 OA
ATOM     21  H   UNL     1     -12.258 -25.951  10.081  1.00  0.00    +0.348 HD
ENDBRANCH  14  15
ENDBRANCH  13  14
ENDBRANCH  12  13
BRANCH  12  22
ATOM     22  C   UNL     1     -12.832 -22.424  10.224  1.00  0.00    +0.100 C 
BRANCH  22  23
ATOM     23  S   UNL     1     -11.805 -22.713   8.731  1.00  0.00    -0.124 SA
BRANCH  23  24
ATOM     24  C   UNL     1     -10.168 -22.899   9.405  1.00  0.00    +0.007 A 
ATOM     25  C   UNL     1      -9.166 -23.426   8.584  1.00  0.00    +0.015 A 
ATOM     26  C   UNL     1      -9.872 -22.619  10.743  1.00  0.00    +0.015 A 
ATOM     27  C   UNL     1      -7.879 -23.645   9.082  1.00  0.00    +0.001 A 
ATOM     28  C   UNL     1      -8.583 -22.831  11.241  1.00  0.00    +0.001 A 
ATOM     29  C   UNL     1      -7.587 -23.341  10.409  1.00  0.00    +0.000 A 
ENDBRANCH  23  24
ENDBRANCH  22  23
ENDBRANCH  12  22
ENDBRANCH  10  12
ENDBRANCH   5  10
BRANCH   6  30
ATOM     30  S   UNL     1     -14.670 -22.330  14.280  1.00  0.00    +0.278 S 
ATOM     31  O   UNL     1     -15.296 -23.535  13.753  1.00  0.00    -0.214 OA
ATOM     32  O   UNL     1     -15.077 -21.822  15.585  1.00  0.00    -0.214 OA
BRANCH  30  33
ATOM     33  C   UNL     1     -12.853 -22.466  14.172  1.00  0.00    +0.501 C 
ATOM     34  F   UNL     1     -12.320 -21.543  13.320  1.00  0.00    -0.156 F 
ATOM     35  F   UNL     1     -12.427 -23.682  13.714  1.00  0.00    -0.156 F 
ATOM     36  F   UNL     1     -12.240 -22.270  15.376  1.00  0.00    -0.156 F 
ENDBRANCH  30  33
ENDBRANCH   6  30
ENDBRANCH   1   4
BRANCH   1  37
ATOM     37  N   UNL     1     -14.138 -16.334  13.027  1.00  0.00    -0.245 N 
ATOM     38  C   UNL     1     -13.803 -15.012  13.335  1.00  0.00    +0.264 C 
ATOM     39  O   UNL     1     -14.512 -14.287  14.015  1.00  0.00    -0.268 OA
ATOM     40  H   UNL     1     -13.553 -16.945  12.467  1.00  0.00    +0.183 HD
BRANCH  38  41
ATOM     41  C   UNL     1     -12.496 -14.528  12.804  1.00  0.00    +0.040 A 
ATOM     42  C   UNL     1     -11.783 -13.465  13.363  1.00  0.00    +0.016 A 
ATOM     43  C   UNL     1     -11.950 -15.196  11.702  1.00  0.00    +0.016 A 
ATOM     44  C   UNL     1     -10.536 -13.099  12.833  1.00  0.00    +0.027 A 
ATOM     45  C   UNL     1     -10.704 -14.821  11.180  1.00  0.00    +0.027 A 
ATOM     46  C   UNL     1      -9.960 -13.776  11.744  1.00  0.00    +0.037 A 
BRANCH  46  47
ATOM     47  N   UNL     1      -8.704 -13.363  11.264  1.00  0.00    -0.360 N 
ATOM     48  C   UNL     1      -7.942 -12.403  12.090  1.00  0.00    +0.178 C 
ATOM     49  C   UNL     1      -8.707 -13.049   9.814  1.00  0.00    +0.178 C 
ATOM     50  C   UNL     1      -6.490 -12.284  11.579  1.00  0.00    +0.284 C 
ATOM     51  C   UNL     1      -7.265 -12.909   9.280  1.00  0.00    +0.284 C 
ATOM     52  N   UNL     1      -6.481 -11.900  10.105  1.00  0.00    -0.329 N 
ATOM     53  H   UNL     1      -6.975 -11.004  10.036  1.00  0.00    +0.348 HD
BRANCH  52  54
ATOM     54  C   UNL     1      -5.089 -11.661   9.590  1.00  0.00    +0.295 C 
BRANCH  54  55
ATOM     55  C   UNL     1      -4.644 -10.220   9.685  1.00  0.00    -0.012 C 
ATOM     56  C   UNL     1      -5.465  -9.142   9.623  1.00  0.00    -0.036 C 
ATOM     57  C   UNL     1      -3.151 -10.053   9.919  1.00  0.00    +0.043 C 
ATOM     58  C   UNL     1      -4.977  -7.714   9.771  1.00  0.00    +0.037 C 
ATOM     59  C   UNL     1      -2.597  -8.631   9.668  1.00  0.00    -0.031 C 
ATOM     60  C   UNL     1      -3.550  -7.605  10.309  1.00  0.00    +0.011 C 
ATOM     61  C   UNL     1      -1.205  -8.506  10.315  1.00  0.00    +0.011 C 
ATOM     62  C   UNL     1      -2.445  -8.371   8.156  1.00  0.00    +0.011 C 
BRANCH  56  63
ATOM     63  C   UNL     1      -6.918  -9.261   9.401  1.00  0.00    -0.022 A 
ATOM     64  C   UNL     1      -7.426  -9.587   8.136  1.00  0.00    +0.010 A 
ATOM     65  C   UNL     1      -7.807  -9.019  10.458  1.00  0.00    +0.010 A 
ATOM     66  C   UNL     1      -8.806  -9.639   7.924  1.00  0.00    +0.021 A 
ATOM     67  C   UNL     1      -9.187  -9.070  10.243  1.00  0.00    +0.021 A 
ATOM     68  C   UNL     1      -9.680  -9.372   8.975  1.00  0.00    +0.041 A 
ATOM     69 Cl   UNL     1     -11.376  -9.405   8.706  1.00  0.00    -0.084 Cl
ENDBRANCH  56  63
ENDBRANCH  54  55
ENDBRANCH  52  54
ENDBRANCH  46  47
ENDBRANCH  38  41
ENDBRANCH   1  37
TORSDOF 17
ENDMDL
MODEL 8
REMARK VINA RESULT:    -9.127      2.161      4.231
REMARK INTER + INTRA:         -23.078
REMARK INTER:                 -19.677
REMARK INTRA:                  -3.401
REMARK UNBOUND:                -4.880
REMARK SMILES CC1(C)CCC(c2ccc(Cl)cc2)=C(C[NH+]2CCN(c3ccc(C(=O)NS(=O)(=O)c4ccc(N[C@H](CC[NH+]5CCOCC5)CSc5ccccc5)c(S(=O)(=O)C(F)(F)F)c4)cc3)CC2)C1
REMARK SMILES IDX 27 1 28 2 29 3 30 4 33 5 52 6 32 7 60 8 31 9 34 10 35 12
REMARK SMILES IDX 36 13 37 14 38 15 39 16 43 17 40 18 42 19 41 20 44 22 45 23
REMARK SMILES IDX 46 24 47 25 51 26 48 27 50 28 49 29 53 30 54 31 55 32 56 33
REMARK SMILES IDX 57 34 58 35 59 36 26 37 24 38 25 39 23 41 22 42 61 43 21 44
REMARK SMILES IDX 62 45 20 46 19 47 18 48 63 49 17 50 64 51 16 52 15 54 14 55
REMARK SMILES IDX 6 56 65 57 5 58 2 59 4 60 1 61 3 62 7 63 8 64 13 65 9 66
REMARK SMILES IDX 12 67 10 68 11 69
REMARK H PARENT 34 11 38 21 26 40 16 53
ROOT
ATOM      1  S   UNL     1     -12.571  -9.396   9.934  1.00  0.00    +0.264 S 
ATOM      2  O   UNL     1     -13.292  -8.591  10.897  1.00  0.00    -0.201 OA
ATOM      3  O   UNL     1     -12.836  -9.294   8.518  1.00  0.00    -0.201 OA
ENDROOT
BRANCH   1   4
ATOM      4  C   UNL     1     -10.849  -9.090  10.219  1.00  0.00    +0.089 A 
ATOM      5  C   UNL     1      -8.087  -8.557  10.570  1.00  0.00    +0.054 A 
ATOM      6  C   UNL     1      -9.051  -8.158  11.521  1.00  0.00    +0.101 A 
ATOM      7  C   UNL     1      -8.551  -9.329   9.496  1.00  0.00    +0.028 A 
ATOM      8  C   UNL     1     -10.425  -8.376  11.336  1.00  0.00    +0.045 A 
ATOM      9  C   UNL     1      -9.916  -9.592   9.315  1.00  0.00    +0.024 A 
BRANCH   5  10
ATOM     10  N   UNL     1      -6.734  -8.265  10.772  1.00  0.00    -0.380 N 
ATOM     11  H   UNL     1      -6.645  -7.284  11.099  1.00  0.00    +0.160 HD
BRANCH  10  12
ATOM     12  C   UNL     1      -5.688  -8.536   9.767  1.00  0.00    +0.095 C 
BRANCH  12  13
ATOM     13  C   UNL     1      -5.034  -9.881  10.172  1.00  0.00    +0.087 C 
BRANCH  13  14
ATOM     14  C   UNL     1      -5.442 -11.034   9.270  1.00  0.00    +0.264 C 
BRANCH  14  15
ATOM     15  N   UNL     1      -5.664 -12.345   9.991  1.00  0.00    -0.331 N 
ATOM     16  C   UNL     1      -6.878 -13.171   9.579  1.00  0.00    +0.291 C 
ATOM     17  C   UNL     1      -5.467 -12.326  11.505  1.00  0.00    +0.291 C 
ATOM     18  C   UNL     1      -8.095 -12.908  10.474  1.00  0.00    +0.221 C 
ATOM     19  C   UNL     1      -6.777 -12.109  12.261  1.00  0.00    +0.221 C 
ATOM     20  O   UNL     1      -7.761 -13.065  11.855  1.00  0.00    -0.370 OA
ATOM     21  H   UNL     1      -4.871 -12.916   9.669  1.00  0.00    +0.348 HD
ENDBRANCH  14  15
ENDBRANCH  13  14
ENDBRANCH  12  13
BRANCH  12  22
ATOM     22  C   UNL     1      -4.695  -7.352   9.642  1.00  0.00    +0.100 C 
BRANCH  22  23
ATOM     23  S   UNL     1      -3.450  -7.279  10.987  1.00  0.00    -0.124 SA
BRANCH  23  24
ATOM     24  C   UNL     1      -2.001  -7.979  10.225  1.00  0.00    +0.007 A 
ATOM     25  C   UNL     1      -1.968  -8.084   8.830  1.00  0.00    +0.015 A 
ATOM     26  C   UNL     1      -0.941  -8.504  10.970  1.00  0.00    +0.015 A 
ATOM     27  C   UNL     1      -0.879  -8.677   8.186  1.00  0.00    +0.001 A 
ATOM     28  C   UNL     1       0.153  -9.091  10.327  1.00  0.00    +0.001 A 
ATOM     29  C   UNL     1       0.184  -9.175   8.936  1.00  0.00    +0.000 A 
ENDBRANCH  23  24
ENDBRANCH  22  23
ENDBRANCH  12  22
ENDBRANCH  10  12
ENDBRANCH   5  10
BRANCH   6  30
ATOM     30  S   UNL     1      -8.526  -7.375  13.043  1.00  0.00    +0.278 S 
ATOM     31  O   UNL     1      -9.724  -6.816  13.653  1.00  0.00    -0.214 OA
ATOM     32  O   UNL     1      -7.425  -6.490  12.680  1.00  0.00    -0.214 OA
BRANCH  30  33
ATOM     33  C   UNL     1      -7.924  -8.792  14.024  1.00  0.00    +0.501 C 
ATOM     34  F   UNL     1      -6.632  -9.110  13.724  1.00  0.00    -0.156 F 
ATOM     35  F   UNL     1      -8.643  -9.938  13.820  1.00  0.00    -0.156 F 
ATOM     36  F   UNL     1      -7.955  -8.552  15.367  1.00  0.00    -0.156 F 
ENDBRANCH  30  33
ENDBRANCH   6  30
ENDBRANCH   1   4
BRANCH   1  37
ATOM     37  N   UNL     1     -12.834 -10.971  10.401  1.00  0.00    -0.245 N 
ATOM     38  C   UNL     1     -12.696 -11.445  11.710  1.00  0.00    +0.264 C 
ATOM     39  O   UNL     1     -12.561 -10.706  12.673  1.00  0.00    -0.268 OA
ATOM     40  H   UNL     1     -12.951 -11.577   9.596  1.00  0.00    +0.183 HD
BRANCH  38  41
ATOM     41  C   UNL     1     -12.749 -12.926  11.879  1.00  0.00    +0.040 A 
ATOM     42  C   UNL     1     -13.518 -13.766  11.071  1.00  0.00    +0.016 A 
ATOM     43  C   UNL     1     -11.966 -13.497  12.887  1.00  0.00    +0.016 A 
ATOM     44  C   UNL     1     -13.480 -15.155  11.265  1.00  0.00    +0.027 A 
ATOM     45  C   UNL     1     -11.936 -14.887  13.073  1.00  0.00    +0.027 A 
ATOM     46  C   UNL     1     -12.678 -15.749  12.255  1.00  0.00    +0.037 A 
BRANCH  46  47
ATOM     47  N   UNL     1     -12.680 -17.149  12.393  1.00  0.00    -0.360 N 
ATOM     48  C   UNL     1     -12.201 -17.707  13.675  1.00  0.00    +0.178 C 
ATOM     49  C   UNL     1     -12.166 -17.854  11.193  1.00  0.00    +0.178 C 
ATOM     50  C   UNL     1     -12.537 -19.210  13.769  1.00  0.00    +0.284 C 
ATOM     51  C   UNL     1     -12.476 -19.365  11.270  1.00  0.00    +0.284 C 
ATOM     52  N   UNL     1     -11.960 -19.955  12.573  1.00  0.00    -0.329 N 
ATOM     53  H   UNL     1     -10.947 -19.799  12.595  1.00  0.00    +0.348 HD
BRANCH  52  54
ATOM     54  C   UNL     1     -12.164 -21.441  12.677  1.00  0.00    +0.295 C 
BRANCH  54  55
ATOM     55  C   UNL     1     -13.246 -21.971  11.764  1.00  0.00    -0.012 C 
ATOM     56  C   UNL     1     -13.033 -22.618  10.592  1.00  0.00    -0.036 C 
ATOM     57  C   UNL     1     -14.655 -21.764  12.298  1.00  0.00    +0.043 C 
ATOM     58  C   UNL     1     -14.151 -23.173   9.732  1.00  0.00    +0.037 C 
ATOM     59  C   UNL     1     -15.789 -21.955  11.264  1.00  0.00    -0.031 C 
ATOM     60  C   UNL     1     -15.505 -23.225  10.442  1.00  0.00    +0.011 C 
ATOM     61  C   UNL     1     -17.129 -22.117  12.004  1.00  0.00    +0.011 C 
ATOM     62  C   UNL     1     -15.896 -20.719  10.348  1.00  0.00    +0.011 C 
BRANCH  56  63
ATOM     63  C   UNL     1     -11.684 -22.841  10.041  1.00  0.00    -0.022 A 
ATOM     64  C   UNL     1     -10.960 -23.999  10.360  1.00  0.00    +0.010 A 
ATOM     65  C   UNL     1     -11.102 -21.875   9.207  1.00  0.00    +0.010 A 
ATOM     66  C   UNL     1      -9.660 -24.172   9.879  1.00  0.00    +0.021 A 
ATOM     67  C   UNL     1      -9.801 -22.049   8.728  1.00  0.00    +0.021 A 
ATOM     68  C   UNL     1      -9.083 -23.193   9.073  1.00  0.00    +0.041 A 
ATOM     69 Cl   UNL     1      -7.474 -23.392   8.508  1.00  0.00    -0.084 Cl
ENDBRANCH  56  63
ENDBRANCH  54  55
ENDBRANCH  52  54
ENDBRANCH  46  47
ENDBRANCH  38  41
ENDBRANCH   1  37
TORSDOF 17
ENDMDL
MODEL 9
REMARK VINA RESULT:    -9.018      6.237     14.089
REMARK INTER + INTRA:         -22.860
REMARK INTER:                 -19.489
REMARK INTRA:                  -3.370
REMARK UNBOUND:                -4.880
REMARK SMILES CC1(C)CCC(c2ccc(Cl)cc2)=C(C[NH+]2CCN(c3ccc(C(=O)NS(=O)(=O)c4ccc(N[C@H](CC[NH+]5CCOCC5)CSc5ccccc5)c(S(=O)(=O)C(F)(F)F)c4)cc3)CC2)C1
REMARK SMILES IDX 27 1 28 2 29 3 30 4 33 5 52 6 32 7 60 8 31 9 34 10 35 12
REMARK SMILES IDX 36 13 37 14 38 15 39 16 43 17 40 18 42 19 41 20 44 22 45 23
REMARK SMILES IDX 46 24 47 25 51 26 48 27 50 28 49 29 53 30 54 31 55 32 56 33
REMARK SMILES IDX 57 34 58 35 59 36 26 37 24 38 25 39 23 41 22 42 61 43 21 44
REMARK SMILES IDX 62 45 20 46 19 47 18 48 63 49 17 50 64 51 16 52 15 54 14 55
REMARK SMILES IDX 6 56 65 57 5 58 2 59 4 60 1 61 3 62 7 63 8 64 13 65 9 66
REMARK SMILES IDX 12 67 10 68 11 69
REMARK H PARENT 34 11 38 21 26 40 16 53
ROOT
ATOM      1  S   UNL     1     -17.792 -18.779  12.533  1.00  0.00    +0.264 S 
ATOM      2  O   UNL     1     -18.671 -18.619  11.395  1.00  0.00    -0.201 OA
ATOM      3  O   UNL     1     -18.298 -18.753  13.885  1.00  0.00    -0.201 OA
ENDROOT
BRANCH   1   4
ATOM      4  C   UNL     1     -16.917 -20.298  12.277  1.00  0.00    +0.089 A 
ATOM      5  C   UNL     1     -15.483 -22.689  11.765  1.00  0.00    +0.054 A 
ATOM      6  C   UNL     1     -15.340 -21.977  12.975  1.00  0.00    +0.101 A 
ATOM      7  C   UNL     1     -16.455 -22.216  10.873  1.00  0.00    +0.028 A 
ATOM      8  C   UNL     1     -16.010 -20.768  13.221  1.00  0.00    +0.045 A 
ATOM      9  C   UNL     1     -17.163 -21.032  11.118  1.00  0.00    +0.024 A 
BRANCH   5  10
ATOM     10  N   UNL     1     -14.748 -23.859  11.544  1.00  0.00    -0.380 N 
ATOM     11  H   UNL     1     -14.149 -24.043  12.370  1.00  0.00    +0.160 HD
BRANCH  10  12
ATOM     12  C   UNL     1     -13.968 -24.106  10.316  1.00  0.00    +0.095 C 
BRANCH  12  13
ATOM     13  C   UNL     1     -13.420 -25.551  10.433  1.00  0.00    +0.087 C 
BRANCH  13  14
ATOM     14  C   UNL     1     -13.046 -25.929  11.857  1.00  0.00    +0.264 C 
BRANCH  14  15
ATOM     15  N   UNL     1     -13.690 -27.205  12.355  1.00  0.00    -0.331 N 
ATOM     16  C   UNL     1     -13.478 -27.567  13.821  1.00  0.00    +0.291 C 
ATOM     17  C   UNL     1     -13.581 -28.421  11.439  1.00  0.00    +0.291 C 
ATOM     18  C   UNL     1     -12.302 -28.531  14.019  1.00  0.00    +0.221 C 
ATOM     19  C   UNL     1     -12.394 -29.314  11.795  1.00  0.00    +0.221 C 
ATOM     20  O   UNL     1     -12.432 -29.680  13.178  1.00  0.00    -0.370 OA
ATOM     21  H   UNL     1     -14.694 -26.981  12.311  1.00  0.00    +0.348 HD
ENDBRANCH  14  15
ENDBRANCH  13  14
ENDBRANCH  12  13
BRANCH  12  22
ATOM     22  C   UNL     1     -12.881 -23.022  10.102  1.00  0.00    +0.100 C 
BRANCH  22  23
ATOM     23  S   UNL     1     -11.828 -23.308   8.627  1.00  0.00    -0.124 SA
BRANCH  23  24
ATOM     24  C   UNL     1     -10.184 -23.331   9.311  1.00  0.00    +0.007 A 
ATOM     25  C   UNL     1     -10.006 -22.898  10.630  1.00  0.00    +0.015 A 
ATOM     26  C   UNL     1      -9.062 -23.681   8.554  1.00  0.00    +0.015 A 
ATOM     27  C   UNL     1      -8.729 -22.843  11.195  1.00  0.00    +0.001 A 
ATOM     28  C   UNL     1      -7.784 -23.633   9.121  1.00  0.00    +0.001 A 
ATOM     29  C   UNL     1      -7.620 -23.217  10.441  1.00  0.00    +0.000 A 
ENDBRANCH  23  24
ENDBRANCH  22  23
ENDBRANCH  12  22
ENDBRANCH  10  12
ENDBRANCH   5  10
BRANCH   6  30
ATOM     30  S   UNL     1     -14.299 -22.635  14.275  1.00  0.00    +0.278 S 
ATOM     31  O   UNL     1     -14.410 -24.085  14.197  1.00  0.00    -0.214 OA
ATOM     32  O   UNL     1     -14.702 -21.949  15.498  1.00  0.00    -0.214 OA
BRANCH  30  33
ATOM     33  C   UNL     1     -12.634 -22.103  13.750  1.00  0.00    +0.501 C 
ATOM     34  F   UNL     1     -11.877 -23.150  13.310  1.00  0.00    -0.156 F 
ATOM     35  F   UNL     1     -11.909 -21.520  14.752  1.00  0.00    -0.156 F 
ATOM     36  F   UNL     1     -12.670 -21.203  12.725  1.00  0.00    -0.156 F 
ENDBRANCH  30  33
ENDBRANCH   6  30
ENDBRANCH   1   4
BRANCH   1  37
ATOM     37  N   UNL     1     -16.658 -17.571  12.378  1.00  0.00    -0.245 N 
ATOM     38  C   UNL     1     -15.674 -17.529  11.385  1.00  0.00    +0.264 C 
ATOM     39  O   UNL     1     -15.676 -18.271  10.416  1.00  0.00    -0.268 OA
ATOM     40  H   UNL     1     -16.667 -16.956  13.184  1.00  0.00    +0.183 HD
BRANCH  38  41
ATOM     41  C   UNL     1     -14.615 -16.493  11.556  1.00  0.00    +0.040 A 
ATOM     42  C   UNL     1     -13.248 -16.771  11.495  1.00  0.00    +0.016 A 
ATOM     43  C   UNL     1     -15.023 -15.171  11.766  1.00  0.00    +0.016 A 
ATOM     44  C   UNL     1     -12.313 -15.732  11.621  1.00  0.00    +0.027 A 
ATOM     45  C   UNL     1     -14.079 -14.140  11.892  1.00  0.00    +0.027 A 
ATOM     46  C   UNL     1     -12.704 -14.394  11.805  1.00  0.00    +0.037 A 
BRANCH  46  47
ATOM     47  N   UNL     1     -11.717 -13.398  11.917  1.00  0.00    -0.360 N 
ATOM     48  C   UNL     1     -10.313 -13.804  11.702  1.00  0.00    +0.178 C 
ATOM     49  C   UNL     1     -11.919 -12.506  13.085  1.00  0.00    +0.178 C 
ATOM     50  C   UNL     1      -9.405 -12.563  11.573  1.00  0.00    +0.284 C 
ATOM     51  C   UNL     1     -11.010 -11.261  12.989  1.00  0.00    +0.284 C 
ATOM     52  N   UNL     1      -9.557 -11.670  12.797  1.00  0.00    -0.329 N 
ATOM     53  H   UNL     1      -9.294 -12.240  13.607  1.00  0.00    +0.348 HD
BRANCH  52  54
ATOM     54  C   UNL     1      -8.609 -10.503  12.770  1.00  0.00    +0.295 C 
BRANCH  54  55
ATOM     55  C   UNL     1      -7.995 -10.250  11.413  1.00  0.00    -0.012 C 
ATOM     56  C   UNL     1      -8.583  -9.559  10.405  1.00  0.00    -0.036 C 
ATOM     57  C   UNL     1      -6.587 -10.805  11.262  1.00  0.00    +0.043 C 
ATOM     58  C   UNL     1      -7.908  -9.290   9.075  1.00  0.00    +0.037 C 
ATOM     59  C   UNL     1      -6.062 -10.892   9.810  1.00  0.00    -0.031 C 
ATOM     60  C   UNL     1      -6.407  -9.583   9.077  1.00  0.00    +0.011 C 
ATOM     61  C   UNL     1      -4.533 -11.075   9.833  1.00  0.00    +0.011 C 
ATOM     62  C   UNL     1      -6.677 -12.107   9.087  1.00  0.00    +0.011 C 
BRANCH  56  63
ATOM     63  C   UNL     1      -9.944  -9.002  10.511  1.00  0.00    -0.022 A 
ATOM     64  C   UNL     1     -10.231  -7.976  11.422  1.00  0.00    +0.010 A 
ATOM     65  C   UNL     1     -10.974  -9.519   9.712  1.00  0.00    +0.010 A 
ATOM     66  C   UNL     1     -11.536  -7.497  11.556  1.00  0.00    +0.021 A 
ATOM     67  C   UNL     1     -12.279  -9.039   9.847  1.00  0.00    +0.021 A 
ATOM     68  C   UNL     1     -12.556  -8.036  10.774  1.00  0.00    +0.041 A 
ATOM     69 Cl   UNL     1     -14.166  -7.469  10.961  1.00  0.00    -0.084 Cl
ENDBRANCH  56  63
ENDBRANCH  54  55
ENDBRANCH  52  54
ENDBRANCH  46  47
ENDBRANCH  38  41
ENDBRANCH   1  37
TORSDOF 17
ENDMDL
