MODEL 1
REMARK VINA RESULT:   -10.281      0.000      0.000
REMARK INTER + INTRA:         -25.008
REMARK INTER:                 -20.498
REMARK INTRA:                  -4.510
REMARK UNBOUND:                -4.510
REMARK SMILES CC1(C)CCC(c2ccc(Cl)cc2)=C(C[NH+]2CCN(c3ccc(C(=O)NS(=O)(=O)c4ccc(N[C@H](CC[NH+]5CCOCC5)CSc5ccccc5)c(S(=O)(=O)C(F)(F)F)c4)cc3)CC2)C1
REMARK SMILES IDX 27 1 28 2 29 3 30 4 33 5 52 6 32 7 60 8 31 9 34 10 35 12
REMARK SMILES IDX 36 13 37 14 38 15 39 16 43 17 40 18 42 19 41 20 44 22 45 23
REMARK SMILES IDX 46 24 47 25 51 26 48 27 50 28 49 29 53 30 54 31 55 32 56 33
REMARK SMILES IDX 57 34 58 35 59 36 26 37 24 38 25 39 23 41 22 42 61 43 21 44
REMARK SMILES IDX 62 45 20 46 19 47 18 48 63 49 17 50 64 51 16 52 15 54 14 55
REMARK SMILES IDX 6 56 65 57 5 58 2 59 4 60 1 61 3 62 7 63 8 64 13 65 9 66
REMARK SMILES IDX 12 67 10 68 11 69
REMARK H PARENT 34 11 38 21 26 40 16 53
ROOT
ATOM      1  S   UNL     1     -12.600 -11.337  11.782  1.00  0.00    +0.264 S 
ATOM      2  O   UNL     1     -13.370 -10.868  10.650  1.00  0.00    -0.201 OA
ATOM      3  O   UNL     1     -12.995 -11.014  13.133  1.00  0.00    -0.201 OA
ENDROOT
BRANCH   1   4
ATOM      4  C   UNL     1     -10.936 -10.778  11.522  1.00  0.00    +0.089 A 
ATOM      5  C   UNL     1      -8.310  -9.890  10.900  1.00  0.00    +0.054 A 
ATOM      6  C   UNL     1      -8.599 -11.252  11.139  1.00  0.00    +0.101 A 
ATOM      7  C   UNL     1      -9.377  -8.990  11.062  1.00  0.00    +0.028 A 
ATOM      8  C   UNL     1      -9.903 -11.705  11.412  1.00  0.00    +0.045 A 
ATOM      9  C   UNL     1     -10.677  -9.421  11.356  1.00  0.00    +0.024 A 
BRANCH   5  10
ATOM     10  N   UNL     1      -7.021  -9.446  10.623  1.00  0.00    -0.380 N 
ATOM     11  H   UNL     1      -6.707  -9.577   9.653  1.00  0.00    +0.160 HD
BRANCH  10  12
ATOM     12  C   UNL     1      -6.395  -8.259  11.230  1.00  0.00    +0.095 C 
BRANCH  12  13
ATOM     13  C   UNL     1      -5.434  -7.564  10.233  1.00  0.00    +0.087 C 
BRANCH  13  14
ATOM     14  C   UNL     1      -4.700  -8.491   9.264  1.00  0.00    +0.264 C 
BRANCH  14  15
ATOM     15  N   UNL     1      -3.302  -8.805   9.772  1.00  0.00    -0.331 N 
ATOM     16  C   UNL     1      -2.755  -7.723  10.708  1.00  0.00    +0.291 C 
ATOM     17  C   UNL     1      -2.325  -8.991   8.605  1.00  0.00    +0.291 C 
ATOM     18  C   UNL     1      -1.337  -8.096  11.150  1.00  0.00    +0.221 C 
ATOM     19  C   UNL     1      -0.926  -9.299   9.149  1.00  0.00    +0.221 C 
ATOM     20  O   UNL     1      -0.473  -8.260  10.021  1.00  0.00    -0.370 OA
ATOM     21  H   UNL     1      -3.328  -9.694  10.287  1.00  0.00    +0.348 HD
ENDBRANCH  14  15
ENDBRANCH  13  14
ENDBRANCH  12  13
BRANCH  12  22
ATOM     22  C   UNL     1      -5.761  -8.626  12.596  1.00  0.00    +0.100 C 
BRANCH  22  23
ATOM     23  S   UNL     1      -6.593  -7.879  14.049  1.00  0.00    -0.124 SA
BRANCH  23  24
ATOM     24  C   UNL     1      -7.756  -9.173  14.445  1.00  0.00    +0.007 A 
ATOM     25  C   UNL     1      -7.322 -10.503  14.420  1.00  0.00    +0.015 A 
ATOM     26  C   UNL     1      -9.094  -8.897  14.744  1.00  0.00    +0.015 A 
ATOM     27  C   UNL     1      -8.206 -11.540  14.722  1.00  0.00    +0.001 A 
ATOM     28  C   UNL     1      -9.978  -9.936  15.046  1.00  0.00    +0.001 A 
ATOM     29  C   UNL     1      -9.533 -11.256  15.039  1.00  0.00    +0.000 A 
ENDBRANCH  23  24
ENDBRANCH  22  23
ENDBRANCH  12  22
ENDBRANCH  10  12
ENDBRANCH   5  10
BRANCH   6  30
ATOM     30  S   UNL     1      -7.307 -12.491  11.028  1.00  0.00    +0.278 S 
ATOM     31  O   UNL     1      -7.753 -13.589  11.879  1.00  0.00    -0.214 OA
ATOM     32  O   UNL     1      -6.063 -11.810  11.356  1.00  0.00    -0.214 OA
BRANCH  30  33
ATOM     33  C   UNL     1      -7.361 -12.937   9.257  1.00  0.00    +0.501 C 
ATOM     34  F   UNL     1      -7.984 -14.134   9.053  1.00  0.00    -0.156 F 
ATOM     35  F   UNL     1      -8.035 -12.016   8.514  1.00  0.00    -0.156 F 
ATOM     36  F   UNL     1      -6.120 -13.047   8.707  1.00  0.00    -0.156 F 
ENDBRANCH  30  33
ENDBRANCH   6  30
ENDBRANCH   1   4
BRANCH   1  37
ATOM     37  N   UNL     1     -12.533 -12.988  11.623  1.00  0.00    -0.245 N 
ATOM     38  C   UNL     1     -12.207 -13.881  12.650  1.00  0.00    +0.264 C 
ATOM     39  O   UNL     1     -11.761 -13.526  13.728  1.00  0.00    -0.268 OA
ATOM     40  H   UNL     1     -12.644 -13.290  10.661  1.00  0.00    +0.183 HD
BRANCH  38  41
ATOM     41  C   UNL     1     -12.407 -15.323  12.332  1.00  0.00    +0.040 A 
ATOM     42  C   UNL     1     -12.130 -16.344  13.245  1.00  0.00    +0.016 A 
ATOM     43  C   UNL     1     -12.885 -15.664  11.066  1.00  0.00    +0.016 A 
ATOM     44  C   UNL     1     -12.329 -17.688  12.889  1.00  0.00    +0.027 A 
ATOM     45  C   UNL     1     -13.083 -17.008  10.722  1.00  0.00    +0.027 A 
ATOM     46  C   UNL     1     -12.795 -18.054  11.618  1.00  0.00    +0.037 A 
BRANCH  46  47
ATOM     47  N   UNL     1     -12.998 -19.387  11.216  1.00  0.00    -0.360 N 
ATOM     48  C   UNL     1     -11.731 -20.135  11.006  1.00  0.00    +0.178 C 
ATOM     49  C   UNL     1     -14.048 -20.162  11.912  1.00  0.00    +0.178 C 
ATOM     50  C   UNL     1     -11.994 -21.474  10.282  1.00  0.00    +0.284 C 
ATOM     51  C   UNL     1     -14.324 -21.493  11.178  1.00  0.00    +0.284 C 
ATOM     52  N   UNL     1     -13.051 -22.313  10.990  1.00  0.00    -0.329 N 
ATOM     53  H   UNL     1     -13.295 -23.073  10.347  1.00  0.00    +0.348 HD
BRANCH  52  54
ATOM     54  C   UNL     1     -12.571 -22.969  12.261  1.00  0.00    +0.295 C 
BRANCH  54  55
ATOM     55  C   UNL     1     -12.596 -24.480  12.205  1.00  0.00    -0.012 C 
ATOM     56  C   UNL     1     -11.696 -25.247  11.544  1.00  0.00    -0.036 C 
ATOM     57  C   UNL     1     -13.717 -25.121  13.011  1.00  0.00    +0.043 C 
ATOM     58  C   UNL     1     -11.754 -26.763  11.509  1.00  0.00    +0.037 C 
ATOM     59  C   UNL     1     -13.525 -26.619  13.343  1.00  0.00    -0.031 C 
ATOM     60  C   UNL     1     -13.050 -27.347  12.072  1.00  0.00    +0.011 C 
ATOM     61  C   UNL     1     -14.869 -27.215  13.799  1.00  0.00    +0.011 C 
ATOM     62  C   UNL     1     -12.511 -26.793  14.492  1.00  0.00    +0.011 C 
BRANCH  56  63
ATOM     63  C   UNL     1     -10.565 -24.677  10.787  1.00  0.00    -0.022 A 
ATOM     64  C   UNL     1      -9.523 -24.023  11.458  1.00  0.00    +0.010 A 
ATOM     65  C   UNL     1     -10.525 -24.778   9.389  1.00  0.00    +0.010 A 
ATOM     66  C   UNL     1      -8.437 -23.509  10.744  1.00  0.00    +0.021 A 
ATOM     67  C   UNL     1      -9.438 -24.267   8.676  1.00  0.00    +0.021 A 
ATOM     68  C   UNL     1      -8.396 -23.641   9.358  1.00  0.00    +0.041 A 
ATOM     69 Cl   UNL     1      -7.046 -23.034   8.485  1.00  0.00    -0.084 Cl
ENDBRANCH  56  63
ENDBRANCH  54  55
ENDBRANCH  52  54
ENDBRANCH  46  47
ENDBRANCH  38  41
ENDBRANCH   1  37
TORSDOF 17
ENDMDL
MODEL 2
REMARK VINA RESULT:   -10.219      4.558     14.264
REMARK INTER + INTRA:         -24.884
REMARK INTER:                 -21.498
REMARK INTRA:                  -3.386
REMARK UNBOUND:                -4.510
REMARK SMILES CC1(C)CCC(c2ccc(Cl)cc2)=C(C[NH+]2CCN(c3ccc(C(=O)NS(=O)(=O)c4ccc(N[C@H](CC[NH+]5CCOCC5)CSc5ccccc5)c(S(=O)(=O)C(F)(F)F)c4)cc3)CC2)C1
REMARK SMILES IDX 27 1 28 2 29 3 30 4 33 5 52 6 32 7 60 8 31 9 34 10 35 12
REMARK SMILES IDX 36 13 37 14 38 15 39 16 43 17 40 18 42 19 41 20 44 22 45 23
REMARK SMILES IDX 46 24 47 25 51 26 48 27 50 28 49 29 53 30 54 31 55 32 56 33
REMARK SMILES IDX 57 34 58 35 59 36 26 37 24 38 25 39 23 41 22 42 61 43 21 44
REMARK SMILES IDX 62 45 20 46 19 47 18 48 63 49 17 50 64 51 16 52 15 54 14 55
REMARK SMILES IDX 6 56 65 57 5 58 2 59 4 60 1 61 3 62 7 63 8 64 13 65 9 66
REMARK SMILES IDX 12 67 10 68 11 69
REMARK H PARENT 34 11 38 21 26 40 16 53
ROOT
ATOM      1  S   UNL     1     -15.188 -16.593  12.777  1.00  0.00    +0.264 S 
ATOM      2  O   UNL     1     -15.310 -16.320  14.193  1.00  0.00    -0.201 OA
ATOM      3  O   UNL     1     -16.192 -16.136  11.844  1.00  0.00    -0.201 OA
ENDROOT
BRANCH   1   4
ATOM      4  C   UNL     1     -15.019 -18.353  12.620  1.00  0.00    +0.089 A 
ATOM      5  C   UNL     1     -14.860 -21.188  12.545  1.00  0.00    +0.054 A 
ATOM      6  C   UNL     1     -13.840 -20.400  13.123  1.00  0.00    +0.101 A 
ATOM      7  C   UNL     1     -15.920 -20.490  11.943  1.00  0.00    +0.028 A 
ATOM      8  C   UNL     1     -13.927 -18.997  13.196  1.00  0.00    +0.045 A 
ATOM      9  C   UNL     1     -16.012 -19.093  11.987  1.00  0.00    +0.024 A 
BRANCH   5  10
ATOM     10  N   UNL     1     -14.774 -22.575  12.480  1.00  0.00    -0.380 N 
ATOM     11  H   UNL     1     -15.636 -23.084  12.715  1.00  0.00    +0.160 HD
BRANCH  10  12
ATOM     12  C   UNL     1     -13.967 -23.320  11.498  1.00  0.00    +0.095 C 
BRANCH  12  13
ATOM     13  C   UNL     1     -14.329 -22.906  10.050  1.00  0.00    +0.087 C 
BRANCH  13  14
ATOM     14  C   UNL     1     -13.466 -23.521   8.949  1.00  0.00    +0.264 C 
BRANCH  14  15
ATOM     15  N   UNL     1     -11.989 -23.303   9.235  1.00  0.00    -0.331 N 
ATOM     16  C   UNL     1     -11.332 -22.331   8.250  1.00  0.00    +0.291 C 
ATOM     17  C   UNL     1     -11.223 -24.631   9.205  1.00  0.00    +0.291 C 
ATOM     18  C   UNL     1      -9.844 -22.188   8.586  1.00  0.00    +0.221 C 
ATOM     19  C   UNL     1      -9.739 -24.378   9.489  1.00  0.00    +0.221 C 
ATOM     20  O   UNL     1      -9.185 -23.458   8.545  1.00  0.00    -0.370 OA
ATOM     21  H   UNL     1     -11.888 -22.919  10.183  1.00  0.00    +0.348 HD
ENDBRANCH  14  15
ENDBRANCH  13  14
ENDBRANCH  12  13
BRANCH  12  22
ATOM     22  C   UNL     1     -14.050 -24.842  11.780  1.00  0.00    +0.100 C 
BRANCH  22  23
ATOM     23  S   UNL     1     -12.610 -25.531  12.681  1.00  0.00    -0.124 SA
BRANCH  23  24
ATOM     24  C   UNL     1     -12.692 -27.233  12.152  1.00  0.00    +0.007 A 
ATOM     25  C   UNL     1     -13.488 -27.560  11.049  1.00  0.00    +0.015 A 
ATOM     26  C   UNL     1     -12.011 -28.250  12.828  1.00  0.00    +0.015 A 
ATOM     27  C   UNL     1     -13.577 -28.882  10.610  1.00  0.00    +0.001 A 
ATOM     28  C   UNL     1     -12.101 -29.573  12.388  1.00  0.00    +0.001 A 
ATOM     29  C   UNL     1     -12.880 -29.887  11.277  1.00  0.00    +0.000 A 
ENDBRANCH  23  24
ENDBRANCH  22  23
ENDBRANCH  12  22
ENDBRANCH  10  12
ENDBRANCH   5  10
BRANCH   6  30
ATOM     30  S   UNL     1     -12.401 -21.172  13.866  1.00  0.00    +0.278 S 
ATOM     31  O   UNL     1     -12.853 -22.491  14.296  1.00  0.00    -0.214 OA
ATOM     32  O   UNL     1     -11.912 -20.237  14.868  1.00  0.00    -0.214 OA
BRANCH  30  33
ATOM     33  C   UNL     1     -11.252 -21.274  12.449  1.00  0.00    +0.501 C 
ATOM     34  F   UNL     1     -10.944 -22.566  12.137  1.00  0.00    -0.156 F 
ATOM     35  F   UNL     1     -11.773 -20.715  11.322  1.00  0.00    -0.156 F 
ATOM     36  F   UNL     1     -10.071 -20.640  12.687  1.00  0.00    -0.156 F 
ENDBRANCH  30  33
ENDBRANCH   6  30
ENDBRANCH   1   4
BRANCH   1  37
ATOM     37  N   UNL     1     -13.715 -15.974  12.328  1.00  0.00    -0.245 N 
ATOM     38  C   UNL     1     -13.349 -14.627  12.422  1.00  0.00    +0.264 C 
ATOM     39  O   UNL     1     -14.140 -13.735  12.677  1.00  0.00    -0.268 OA
ATOM     40  H   UNL     1     -13.130 -16.661  11.865  1.00  0.00    +0.183 HD
BRANCH  38  41
ATOM     41  C   UNL     1     -11.913 -14.334  12.153  1.00  0.00    +0.040 A 
ATOM     42  C   UNL     1     -11.207 -14.915  11.096  1.00  0.00    +0.016 A 
ATOM     43  C   UNL     1     -11.246 -13.445  12.999  1.00  0.00    +0.016 A 
ATOM     44  C   UNL     1      -9.851 -14.610  10.894  1.00  0.00    +0.027 A 
ATOM     45  C   UNL     1      -9.894 -13.145  12.786  1.00  0.00    +0.027 A 
ATOM     46  C   UNL     1      -9.158 -13.730  11.740  1.00  0.00    +0.037 A 
BRANCH  46  47
ATOM     47  N   UNL     1      -7.798 -13.405  11.581  1.00  0.00    -0.360 N 
ATOM     48  C   UNL     1      -7.500 -12.760  10.277  1.00  0.00    +0.178 C 
ATOM     49  C   UNL     1      -7.100 -12.793  12.732  1.00  0.00    +0.178 C 
ATOM     50  C   UNL     1      -5.977 -12.702  10.026  1.00  0.00    +0.284 C 
ATOM     51  C   UNL     1      -5.575 -12.753  12.489  1.00  0.00    +0.284 C 
ATOM     52  N   UNL     1      -5.226 -12.049  11.180  1.00  0.00    -0.329 N 
ATOM     53  H   UNL     1      -4.231 -12.230  11.017  1.00  0.00    +0.348 HD
BRANCH  52  54
ATOM     54  C   UNL     1      -5.381 -10.550  11.249  1.00  0.00    +0.295 C 
BRANCH  54  55
ATOM     55  C   UNL     1      -4.838  -9.833  10.034  1.00  0.00    -0.012 C 
ATOM     56  C   UNL     1      -5.595  -9.263   9.066  1.00  0.00    -0.036 C 
ATOM     57  C   UNL     1      -3.319  -9.743   9.984  1.00  0.00    +0.043 C 
ATOM     58  C   UNL     1      -5.012  -8.552   7.859  1.00  0.00    +0.037 C 
ATOM     59  C   UNL     1      -2.747  -8.668   9.031  1.00  0.00    -0.031 C 
ATOM     60  C   UNL     1      -3.504  -8.744   7.693  1.00  0.00    +0.011 C 
ATOM     61  C   UNL     1      -1.253  -8.948   8.787  1.00  0.00    +0.011 C 
ATOM     62  C   UNL     1      -2.874  -7.266   9.660  1.00  0.00    +0.011 C 
BRANCH  56  63
ATOM     63  C   UNL     1      -7.069  -9.281   9.091  1.00  0.00    -0.022 A 
ATOM     64  C   UNL     1      -7.762  -8.873  10.239  1.00  0.00    +0.010 A 
ATOM     65  C   UNL     1      -7.793  -9.714   7.971  1.00  0.00    +0.010 A 
ATOM     66  C   UNL     1      -9.159  -8.861  10.254  1.00  0.00    +0.021 A 
ATOM     67  C   UNL     1      -9.190  -9.701   7.986  1.00  0.00    +0.021 A 
ATOM     68  C   UNL     1      -9.866  -9.267   9.124  1.00  0.00    +0.041 A 
ATOM     69 Cl   UNL     1     -11.584  -9.226   9.134  1.00  0.00    -0.084 Cl
ENDBRANCH  56  63
ENDBRANCH  54  55
ENDBRANCH  52  54
ENDBRANCH  46  47
ENDBRANCH  38  41
ENDBRANCH   1  37
TORSDOF 17
ENDMDL
MODEL 3
REMARK VINA RESULT:   -10.133      2.953      4.618
REMARK INTER + INTRA:         -24.713
REMARK INTER:                 -20.259
REMARK INTRA:                  -4.453
REMARK UNBOUND:                -4.510
REMARK SMILES CC1(C)CCC(c2ccc(Cl)cc2)=C(C[NH+]2CCN(c3ccc(C(=O)NS(=O)(=O)c4ccc(N[C@H](CC[NH+]5CCOCC5)CSc5ccccc5)c(S(=O)(=O)C(F)(F)F)c4)cc3)CC2)C1
REMARK SMILES IDX 27 1 28 2 29 3 30 4 33 5 52 6 32 7 60 8 31 9 34 10 35 12
REMARK SMILES IDX 36 13 37 14 38 15 39 16 43 17 40 18 42 19 41 20 44 22 45 23
REMARK SMILES IDX 46 24 47 25 51 26 48 27 50 28 49 29 53 30 54 31 55 32 56 33
REMARK SMILES IDX 57 34 58 35 59 36 26 37 24 38 25 39 23 41 22 42 61 43 21 44
REMARK SMILES IDX 62 45 20 46 19 47 18 48 63 49 17 50 64 51 16 52 15 54 14 55
REMARK SMILES IDX 6 56 65 57 5 58 2 59 4 60 1 61 3 62 7 63 8 64 13 65 9 66
REMARK SMILES IDX 12 67 10 68 11 69
REMARK H PARENT 34 11 38 21 26 40 16 53
ROOT
ATOM      1  S   UNL     1     -11.570  -9.272  10.262  1.00  0.00    +0.264 S 
ATOM      2  O   UNL     1     -12.168  -9.370   8.947  1.00  0.00    -0.201 OA
ATOM      3  O   UNL     1     -12.013  -8.272  11.205  1.00  0.00    -0.201 OA
ENDROOT
BRANCH   1   4
ATOM      4  C   UNL     1      -9.824  -9.083  10.004  1.00  0.00    +0.089 A 
ATOM      5  C   UNL     1      -7.003  -8.962   9.692  1.00  0.00    +0.054 A 
ATOM      6  C   UNL     1      -7.665  -8.304  10.753  1.00  0.00    +0.101 A 
ATOM      7  C   UNL     1      -7.824  -9.616   8.758  1.00  0.00    +0.028 A 
ATOM      8  C   UNL     1      -9.058  -8.389  10.935  1.00  0.00    +0.045 A 
ATOM      9  C   UNL     1      -9.214  -9.691   8.911  1.00  0.00    +0.024 A 
BRANCH   5  10
ATOM     10  N   UNL     1      -5.625  -8.883   9.519  1.00  0.00    -0.380 N 
ATOM     11  H   UNL     1      -5.231  -7.933   9.533  1.00  0.00    +0.160 HD
BRANCH  10  12
ATOM     12  C   UNL     1      -4.657  -9.867  10.032  1.00  0.00    +0.095 C 
BRANCH  12  13
ATOM     13  C   UNL     1      -3.262  -9.663   9.391  1.00  0.00    +0.087 C 
BRANCH  13  14
ATOM     14  C   UNL     1      -2.774  -8.217   9.310  1.00  0.00    +0.264 C 
BRANCH  14  15
ATOM     15  N   UNL     1      -1.297  -8.125   9.656  1.00  0.00    -0.331 N 
ATOM     16  C   UNL     1      -0.446  -9.148   8.896  1.00  0.00    +0.291 C 
ATOM     17  C   UNL     1      -1.074  -8.316  11.161  1.00  0.00    +0.291 C 
ATOM     18  C   UNL     1       1.020  -9.012   9.321  1.00  0.00    +0.221 C 
ATOM     19  C   UNL     1       0.423  -8.226  11.476  1.00  0.00    +0.221 C 
ATOM     20  O   UNL     1       1.165  -9.196  10.732  1.00  0.00    -0.370 OA
ATOM     21  H   UNL     1      -0.958  -7.184   9.419  1.00  0.00    +0.348 HD
ENDBRANCH  14  15
ENDBRANCH  13  14
ENDBRANCH  12  13
BRANCH  12  22
ATOM     22  C   UNL     1      -5.230 -11.302   9.901  1.00  0.00    +0.100 C 
BRANCH  22  23
ATOM     23  S   UNL     1      -5.436 -12.189  11.491  1.00  0.00    -0.124 SA
BRANCH  23  24
ATOM     24  C   UNL     1      -7.031 -12.944  11.226  1.00  0.00    +0.007 A 
ATOM     25  C   UNL     1      -7.421 -13.260   9.920  1.00  0.00    +0.015 A 
ATOM     26  C   UNL     1      -7.914 -13.195  12.281  1.00  0.00    +0.015 A 
ATOM     27  C   UNL     1      -8.663 -13.850   9.677  1.00  0.00    +0.001 A 
ATOM     28  C   UNL     1      -9.157 -13.784  12.037  1.00  0.00    +0.001 A 
ATOM     29  C   UNL     1      -9.529 -14.115  10.736  1.00  0.00    +0.000 A 
ENDBRANCH  23  24
ENDBRANCH  22  23
ENDBRANCH  12  22
ENDBRANCH  10  12
ENDBRANCH   5  10
BRANCH   6  30
ATOM     30  S   UNL     1      -6.732  -7.380  11.976  1.00  0.00    +0.278 S 
ATOM     31  O   UNL     1      -7.693  -6.461  12.577  1.00  0.00    -0.214 OA
ATOM     32  O   UNL     1      -5.580  -6.831  11.276  1.00  0.00    -0.214 OA
BRANCH  30  33
ATOM     33  C   UNL     1      -6.227  -8.694  13.139  1.00  0.00    +0.501 C 
ATOM     34  F   UNL     1      -4.918  -9.042  12.975  1.00  0.00    -0.156 F 
ATOM     35  F   UNL     1      -6.369  -8.315  14.439  1.00  0.00    -0.156 F 
ATOM     36  F   UNL     1      -6.954  -9.836  12.986  1.00  0.00    -0.156 F 
ENDBRANCH  30  33
ENDBRANCH   6  30
ENDBRANCH   1   4
BRANCH   1  37
ATOM     37  N   UNL     1     -11.748 -10.773  10.947  1.00  0.00    -0.245 N 
ATOM     38  C   UNL     1     -12.973 -11.392  11.215  1.00  0.00    +0.264 C 
ATOM     39  O   UNL     1     -14.045 -10.816  11.138  1.00  0.00    -0.268 OA
ATOM     40  H   UNL     1     -10.866 -11.163  11.262  1.00  0.00    +0.183 HD
BRANCH  38  41
ATOM     41  C   UNL     1     -12.890 -12.818  11.642  1.00  0.00    +0.040 A 
ATOM     42  C   UNL     1     -12.483 -13.201  12.923  1.00  0.00    +0.016 A 
ATOM     43  C   UNL     1     -13.228 -13.809  10.719  1.00  0.00    +0.016 A 
ATOM     44  C   UNL     1     -12.414 -14.560  13.270  1.00  0.00    +0.027 A 
ATOM     45  C   UNL     1     -13.160 -15.162  11.077  1.00  0.00    +0.027 A 
ATOM     46  C   UNL     1     -12.736 -15.573  12.354  1.00  0.00    +0.037 A 
BRANCH  46  47
ATOM     47  N   UNL     1     -12.670 -16.946  12.655  1.00  0.00    -0.360 N 
ATOM     48  C   UNL     1     -13.749 -17.738  12.011  1.00  0.00    +0.178 C 
ATOM     49  C   UNL     1     -11.342 -17.594  12.620  1.00  0.00    +0.178 C 
ATOM     50  C   UNL     1     -13.819 -19.162  12.606  1.00  0.00    +0.284 C 
ATOM     51  C   UNL     1     -11.407 -19.010  13.232  1.00  0.00    +0.284 C 
ATOM     52  N   UNL     1     -12.471 -19.873  12.559  1.00  0.00    -0.329 N 
ATOM     53  H   UNL     1     -12.567 -20.711  13.140  1.00  0.00    +0.348 HD
BRANCH  52  54
ATOM     54  C   UNL     1     -12.071 -20.349  11.184  1.00  0.00    +0.295 C 
BRANCH  54  55
ATOM     55  C   UNL     1     -11.640 -21.798  11.152  1.00  0.00    -0.012 C 
ATOM     56  C   UNL     1     -12.470 -22.859  11.297  1.00  0.00    -0.036 C 
ATOM     57  C   UNL     1     -10.155 -22.006  10.888  1.00  0.00    +0.043 C 
ATOM     58  C   UNL     1     -12.000 -24.300  11.259  1.00  0.00    +0.037 C 
ATOM     59  C   UNL     1      -9.756 -23.423  10.413  1.00  0.00    -0.031 C 
ATOM     60  C   UNL     1     -10.478 -24.458  11.294  1.00  0.00    +0.011 C 
ATOM     61  C   UNL     1      -8.234 -23.600  10.564  1.00  0.00    +0.011 C 
ATOM     62  C   UNL     1     -10.114 -23.615   8.926  1.00  0.00    +0.011 C 
BRANCH  56  63
ATOM     63  C   UNL     1     -13.922 -22.712  11.508  1.00  0.00    -0.022 A 
ATOM     64  C   UNL     1     -14.454 -22.735  12.805  1.00  0.00    +0.010 A 
ATOM     65  C   UNL     1     -14.786 -22.554  10.415  1.00  0.00    +0.010 A 
ATOM     66  C   UNL     1     -15.826 -22.566  13.008  1.00  0.00    +0.021 A 
ATOM     67  C   UNL     1     -16.157 -22.382  10.619  1.00  0.00    +0.021 A 
ATOM     68  C   UNL     1     -16.670 -22.381  11.915  1.00  0.00    +0.041 A 
ATOM     69 Cl   UNL     1     -18.353 -22.145  12.169  1.00  0.00    -0.084 Cl
ENDBRANCH  56  63
ENDBRANCH  54  55
ENDBRANCH  52  54
ENDBRANCH  46  47
ENDBRANCH  38  41
ENDBRANCH   1  37
TORSDOF 17
ENDMDL
MODEL 4
REMARK VINA RESULT:   -10.086      2.783      3.878
REMARK INTER + INTRA:         -24.620
REMARK INTER:                 -20.639
REMARK INTRA:                  -3.982
REMARK UNBOUND:                -4.510
REMARK SMILES CC1(C)CCC(c2ccc(Cl)cc2)=C(C[NH+]2CCN(c3ccc(C(=O)NS(=O)(=O)c4ccc(N[C@H](CC[NH+]5CCOCC5)CSc5ccccc5)c(S(=O)(=O)C(F)(F)F)c4)cc3)CC2)C1
REMARK SMILES IDX 27 1 28 2 29 3 30 4 33 5 52 6 32 7 60 8 31 9 34 10 35 12
REMARK SMILES IDX 36 13 37 14 38 15 39 16 43 17 40 18 42 19 41 20 44 22 45 23
REMARK SMILES IDX 46 24 47 25 51 26 48 27 50 28 49 29 53 30 54 31 55 32 56 33
REMARK SMILES IDX 57 34 58 35 59 36 26 37 24 38 25 39 23 41 22 42 61 43 21 44
REMARK SMILES IDX 62 45 20 46 19 47 18 48 63 49 17 50 64 51 16 52 15 54 14 55
REMARK SMILES IDX 6 56 65 57 5 58 2 59 4 60 1 61 3 62 7 63 8 64 13 65 9 66
REMARK SMILES IDX 12 67 10 68 11 69
REMARK H PARENT 34 11 38 21 26 40 16 53
ROOT
ATOM      1  S   UNL     1     -11.811  -9.200  10.497  1.00  0.00    +0.264 S 
ATOM      2  O   UNL     1     -12.180  -9.344   9.105  1.00  0.00    -0.201 OA
ATOM      3  O   UNL     1     -12.472  -8.235  11.344  1.00  0.00    -0.201 OA
ENDROOT
BRANCH   1   4
ATOM      4  C   UNL     1     -10.065  -8.882  10.520  1.00  0.00    +0.089 A 
ATOM      5  C   UNL     1      -7.252  -8.528  10.697  1.00  0.00    +0.054 A 
ATOM      6  C   UNL     1      -8.150  -7.759  11.470  1.00  0.00    +0.101 A 
ATOM      7  C   UNL     1      -7.829  -9.423   9.781  1.00  0.00    +0.028 A 
ATOM      8  C   UNL     1      -9.543  -7.953  11.416  1.00  0.00    +0.045 A 
ATOM      9  C   UNL     1      -9.214  -9.613   9.698  1.00  0.00    +0.024 A 
BRANCH   5  10
ATOM     10  N   UNL     1      -5.875  -8.339  10.758  1.00  0.00    -0.380 N 
ATOM     11  H   UNL     1      -5.570  -7.398  11.040  1.00  0.00    +0.160 HD
BRANCH  10  12
ATOM     12  C   UNL     1      -4.906  -9.363  11.185  1.00  0.00    +0.095 C 
BRANCH  12  13
ATOM     13  C   UNL     1      -4.241 -10.044   9.964  1.00  0.00    +0.087 C 
BRANCH  13  14
ATOM     14  C   UNL     1      -3.491  -9.113   9.011  1.00  0.00    +0.264 C 
BRANCH  14  15
ATOM     15  N   UNL     1      -1.993  -9.174   9.263  1.00  0.00    -0.331 N 
ATOM     16  C   UNL     1      -1.586  -8.503  10.578  1.00  0.00    +0.291 C 
ATOM     17  C   UNL     1      -1.218  -8.522   8.112  1.00  0.00    +0.291 C 
ATOM     18  C   UNL     1      -0.065  -8.580  10.744  1.00  0.00    +0.221 C 
ATOM     19  C   UNL     1       0.286  -8.592   8.399  1.00  0.00    +0.221 C 
ATOM     20  O   UNL     1       0.603  -7.959   9.641  1.00  0.00    -0.370 OA
ATOM     21  H   UNL     1      -1.703 -10.160   9.300  1.00  0.00    +0.348 HD
ENDBRANCH  14  15
ENDBRANCH  13  14
ENDBRANCH  12  13
BRANCH  12  22
ATOM     22  C   UNL     1      -5.565 -10.336  12.196  1.00  0.00    +0.100 C 
BRANCH  22  23
ATOM     23  S   UNL     1      -5.258 -12.112  11.855  1.00  0.00    -0.124 SA
BRANCH  23  24
ATOM     24  C   UNL     1      -6.921 -12.657  11.507  1.00  0.00    +0.007 A 
ATOM     25  C   UNL     1      -7.232 -13.098  10.216  1.00  0.00    +0.015 A 
ATOM     26  C   UNL     1      -7.928 -12.622  12.477  1.00  0.00    +0.015 A 
ATOM     27  C   UNL     1      -8.524 -13.529   9.909  1.00  0.00    +0.001 A 
ATOM     28  C   UNL     1      -9.220 -13.053  12.168  1.00  0.00    +0.001 A 
ATOM     29  C   UNL     1      -9.516 -13.510  10.886  1.00  0.00    +0.000 A 
ENDBRANCH  23  24
ENDBRANCH  22  23
ENDBRANCH  12  22
ENDBRANCH  10  12
ENDBRANCH   5  10
BRANCH   6  30
ATOM     30  S   UNL     1      -7.537  -6.534  12.629  1.00  0.00    +0.278 S 
ATOM     31  O   UNL     1      -8.677  -5.668  12.911  1.00  0.00    -0.214 OA
ATOM     32  O   UNL     1      -6.351  -5.955  12.016  1.00  0.00    -0.214 OA
BRANCH  30  33
ATOM     33  C   UNL     1      -7.093  -7.566  14.070  1.00  0.00    +0.501 C 
ATOM     34  F   UNL     1      -5.752  -7.816  14.122  1.00  0.00    -0.156 F 
ATOM     35  F   UNL     1      -7.424  -6.973  15.250  1.00  0.00    -0.156 F 
ATOM     36  F   UNL     1      -7.713  -8.778  14.056  1.00  0.00    -0.156 F 
ENDBRANCH  30  33
ENDBRANCH   6  30
ENDBRANCH   1   4
BRANCH   1  37
ATOM     37  N   UNL     1     -11.986 -10.710  11.164  1.00  0.00    -0.245 N 
ATOM     38  C   UNL     1     -13.202 -11.383  11.316  1.00  0.00    +0.264 C 
ATOM     39  O   UNL     1     -14.286 -10.855  11.138  1.00  0.00    -0.268 OA
ATOM     40  H   UNL     1     -11.121 -11.061  11.561  1.00  0.00    +0.183 HD
BRANCH  38  41
ATOM     41  C   UNL     1     -13.097 -12.805  11.751  1.00  0.00    +0.040 A 
ATOM     42  C   UNL     1     -12.813 -13.174  13.069  1.00  0.00    +0.016 A 
ATOM     43  C   UNL     1     -13.284 -13.807  10.797  1.00  0.00    +0.016 A 
ATOM     44  C   UNL     1     -12.716 -14.529  13.422  1.00  0.00    +0.027 A 
ATOM     45  C   UNL     1     -13.189 -15.157  11.161  1.00  0.00    +0.027 A 
ATOM     46  C   UNL     1     -12.887 -15.553  12.477  1.00  0.00    +0.037 A 
BRANCH  46  47
ATOM     47  N   UNL     1     -12.788 -16.922  12.784  1.00  0.00    -0.360 N 
ATOM     48  C   UNL     1     -13.848 -17.744  12.145  1.00  0.00    +0.178 C 
ATOM     49  C   UNL     1     -11.444 -17.538  12.751  1.00  0.00    +0.178 C 
ATOM     50  C   UNL     1     -13.882 -19.166  12.747  1.00  0.00    +0.284 C 
ATOM     51  C   UNL     1     -11.474 -18.953  13.369  1.00  0.00    +0.284 C 
ATOM     52  N   UNL     1     -12.517 -19.844  12.701  1.00  0.00    -0.329 N 
ATOM     53  H   UNL     1     -12.592 -20.682  13.286  1.00  0.00    +0.348 HD
BRANCH  52  54
ATOM     54  C   UNL     1     -12.107 -20.317  11.328  1.00  0.00    +0.295 C 
BRANCH  54  55
ATOM     55  C   UNL     1     -12.942 -21.468  10.815  1.00  0.00    -0.012 C 
ATOM     56  C   UNL     1     -12.455 -22.546  10.154  1.00  0.00    -0.036 C 
ATOM     57  C   UNL     1     -14.425 -21.363  11.140  1.00  0.00    +0.043 C 
ATOM     58  C   UNL     1     -13.326 -23.683   9.653  1.00  0.00    +0.037 C 
ATOM     59  C   UNL     1     -15.224 -22.683  11.037  1.00  0.00    -0.031 C 
ATOM     60  C   UNL     1     -14.826 -23.397   9.733  1.00  0.00    +0.011 C 
ATOM     61  C   UNL     1     -16.730 -22.365  11.004  1.00  0.00    +0.011 C 
ATOM     62  C   UNL     1     -14.951 -23.577  12.263  1.00  0.00    +0.011 C 
BRANCH  56  63
ATOM     63  C   UNL     1     -11.022 -22.717   9.854  1.00  0.00    -0.022 A 
ATOM     64  C   UNL     1     -10.160 -23.271  10.811  1.00  0.00    +0.010 A 
ATOM     65  C   UNL     1     -10.504 -22.322   8.613  1.00  0.00    +0.010 A 
ATOM     66  C   UNL     1      -8.808 -23.462  10.518  1.00  0.00    +0.021 A 
ATOM     67  C   UNL     1      -9.152 -22.515   8.318  1.00  0.00    +0.021 A 
ATOM     68  C   UNL     1      -8.312 -23.091   9.269  1.00  0.00    +0.041 A 
ATOM     69 Cl   UNL     1      -6.654 -23.352   8.900  1.00  0.00    -0.084 Cl
ENDBRANCH  56  63
ENDBRANCH  54  55
ENDBRANCH  52  54
ENDBRANCH  46  47
ENDBRANCH  38  41
ENDBRANCH   1  37
TORSDOF 17
ENDMDL
MODEL 5
REMARK VINA RESULT:   -10.085      5.235     14.566
REMARK INTER + INTRA:         -24.618
REMARK INTER:                 -21.633
REMARK INTRA:                  -2.985
REMARK UNBOUND:                -4.510
REMARK SMILES CC1(C)CCC(c2ccc(Cl)cc2)=C(C[NH+]2CCN(c3ccc(C(=O)NS(=O)(=O)c4ccc(N[C@H](CC[NH+]5CCOCC5)CSc5ccccc5)c(S(=O)(=O)C(F)(F)F)c4)cc3)CC2)C1
REMARK SMILES IDX 27 1 28 2 29 3 30 4 33 5 52 6 32 7 60 8 31 9 34 10 35 12
REMARK SMILES IDX 36 13 37 14 38 15 39 16 43 17 40 18 42 19 41 20 44 22 45 23
REMARK SMILES IDX 46 24 47 25 51 26 48 27 50 28 49 29 53 30 54 31 55 32 56 33
REMARK SMILES IDX 57 34 58 35 59 36 26 37 24 38 25 39 23 41 22 42 61 43 21 44
REMARK SMILES IDX 62 45 20 46 19 47 18 48 63 49 17 50 64 51 16 52 15 54 14 55
REMARK SMILES IDX 6 56 65 57 5 58 2 59 4 60 1 61 3 62 7 63 8 64 13 65 9 66
REMARK SMILES IDX 12 67 10 68 11 69
REMARK H PARENT 34 11 38 21 26 40 16 53
ROOT
ATOM      1  S   UNL     1     -15.317 -16.329  13.022  1.00  0.00    +0.264 S 
ATOM      2  O   UNL     1     -15.426 -15.947  14.414  1.00  0.00    -0.201 OA
ATOM      3  O   UNL     1     -16.313 -15.920  12.060  1.00  0.00    -0.201 OA
ENDROOT
BRANCH   1   4
ATOM      4  C   UNL     1     -15.188 -18.099  12.998  1.00  0.00    +0.089 A 
ATOM      5  C   UNL     1     -14.873 -20.914  12.783  1.00  0.00    +0.054 A 
ATOM      6  C   UNL     1     -16.024 -20.253  12.297  1.00  0.00    +0.101 A 
ATOM      7  C   UNL     1     -13.929 -20.112  13.446  1.00  0.00    +0.028 A 
ATOM      8  C   UNL     1     -16.172 -18.855  12.368  1.00  0.00    +0.045 A 
ATOM      9  C   UNL     1     -14.071 -18.722  13.544  1.00  0.00    +0.024 A 
BRANCH   5  10
ATOM     10  N   UNL     1     -14.727 -22.295  12.706  1.00  0.00    -0.380 N 
ATOM     11  H   UNL     1     -15.602 -22.830  12.640  1.00  0.00    +0.160 HD
BRANCH  10  12
ATOM     12  C   UNL     1     -13.628 -22.984  12.008  1.00  0.00    +0.095 C 
BRANCH  12  13
ATOM     13  C   UNL     1     -12.446 -23.265  12.969  1.00  0.00    +0.087 C 
BRANCH  13  14
ATOM     14  C   UNL     1     -11.379 -24.226  12.446  1.00  0.00    +0.264 C 
BRANCH  14  15
ATOM     15  N   UNL     1     -11.339 -25.495  13.280  1.00  0.00    -0.331 N 
ATOM     16  C   UNL     1     -11.768 -26.736  12.490  1.00  0.00    +0.291 C 
ATOM     17  C   UNL     1     -12.232 -25.365  14.520  1.00  0.00    +0.291 C 
ATOM     18  C   UNL     1     -11.730 -27.965  13.405  1.00  0.00    +0.221 C 
ATOM     19  C   UNL     1     -12.176 -26.661  15.334  1.00  0.00    +0.221 C 
ATOM     20  O   UNL     1     -12.578 -27.783  14.544  1.00  0.00    -0.370 OA
ATOM     21  H   UNL     1     -10.378 -25.642  13.615  1.00  0.00    +0.348 HD
ENDBRANCH  14  15
ENDBRANCH  13  14
ENDBRANCH  12  13
BRANCH  12  22
ATOM     22  C   UNL     1     -13.248 -22.217  10.716  1.00  0.00    +0.100 C 
BRANCH  22  23
ATOM     23  S   UNL     1     -13.169 -23.256   9.207  1.00  0.00    -0.124 SA
BRANCH  23  24
ATOM     24  C   UNL     1     -11.403 -23.314   8.959  1.00  0.00    +0.007 A 
ATOM     25  C   UNL     1     -10.704 -22.114   8.787  1.00  0.00    +0.015 A 
ATOM     26  C   UNL     1     -10.706 -24.525   8.897  1.00  0.00    +0.015 A 
ATOM     27  C   UNL     1      -9.322 -22.125   8.589  1.00  0.00    +0.001 A 
ATOM     28  C   UNL     1      -9.323 -24.534   8.698  1.00  0.00    +0.001 A 
ATOM     29  C   UNL     1      -8.632 -23.334   8.548  1.00  0.00    +0.000 A 
ENDBRANCH  23  24
ENDBRANCH  22  23
ENDBRANCH  12  22
ENDBRANCH  10  12
ENDBRANCH   5  10
BRANCH   6  30
ATOM     30  S   UNL     1     -17.333 -21.177  11.490  1.00  0.00    +0.278 S 
ATOM     31  O   UNL     1     -16.657 -22.259  10.781  1.00  0.00    -0.214 OA
ATOM     32  O   UNL     1     -18.099 -20.206  10.722  1.00  0.00    -0.214 OA
BRANCH  30  33
ATOM     33  C   UNL     1     -18.296 -21.792  12.915  1.00  0.00    +0.501 C 
ATOM     34  F   UNL     1     -19.587 -22.072  12.572  1.00  0.00    -0.156 F 
ATOM     35  F   UNL     1     -17.774 -22.936  13.435  1.00  0.00    -0.156 F 
ATOM     36  F   UNL     1     -18.353 -20.891  13.935  1.00  0.00    -0.156 F 
ENDBRANCH  30  33
ENDBRANCH   6  30
ENDBRANCH   1   4
BRANCH   1  37
ATOM     37  N   UNL     1     -13.832 -15.779  12.524  1.00  0.00    -0.245 N 
ATOM     38  C   UNL     1     -13.450 -14.435  12.471  1.00  0.00    +0.264 C 
ATOM     39  O   UNL     1     -14.233 -13.511  12.615  1.00  0.00    -0.268 OA
ATOM     40  H   UNL     1     -13.249 -16.520  12.148  1.00  0.00    +0.183 HD
BRANCH  38  41
ATOM     41  C   UNL     1     -12.008 -14.189  12.189  1.00  0.00    +0.040 A 
ATOM     42  C   UNL     1     -11.314 -14.848  11.171  1.00  0.00    +0.016 A 
ATOM     43  C   UNL     1     -11.324 -13.264  12.980  1.00  0.00    +0.016 A 
ATOM     44  C   UNL     1      -9.951 -14.584  10.954  1.00  0.00    +0.027 A 
ATOM     45  C   UNL     1      -9.966 -13.006  12.753  1.00  0.00    +0.027 A 
ATOM     46  C   UNL     1      -9.241 -13.670  11.746  1.00  0.00    +0.037 A 
BRANCH  46  47
ATOM     47  N   UNL     1      -7.874 -13.383  11.571  1.00  0.00    -0.360 N 
ATOM     48  C   UNL     1      -7.579 -12.701  10.285  1.00  0.00    +0.178 C 
ATOM     49  C   UNL     1      -7.133 -12.837  12.728  1.00  0.00    +0.178 C 
ATOM     50  C   UNL     1      -6.060 -12.684  10.004  1.00  0.00    +0.284 C 
ATOM     51  C   UNL     1      -5.613 -12.838  12.455  1.00  0.00    +0.284 C 
ATOM     52  N   UNL     1      -5.266 -12.099  11.166  1.00  0.00    -0.329 N 
ATOM     53  H   UNL     1      -4.281 -12.306  10.976  1.00  0.00    +0.348 HD
BRANCH  52  54
ATOM     54  C   UNL     1      -5.370 -10.598  11.292  1.00  0.00    +0.295 C 
BRANCH  54  55
ATOM     55  C   UNL     1      -4.842  -9.856  10.085  1.00  0.00    -0.012 C 
ATOM     56  C   UNL     1      -5.612  -9.266   9.139  1.00  0.00    -0.036 C 
ATOM     57  C   UNL     1      -3.324  -9.766  10.017  1.00  0.00    +0.043 C 
ATOM     58  C   UNL     1      -5.045  -8.529   7.940  1.00  0.00    +0.037 C 
ATOM     59  C   UNL     1      -2.764  -8.671   9.079  1.00  0.00    -0.031 C 
ATOM     60  C   UNL     1      -3.539  -8.719   7.750  1.00  0.00    +0.011 C 
ATOM     61  C   UNL     1      -1.274  -8.946   8.809  1.00  0.00    +0.011 C 
ATOM     62  C   UNL     1      -2.882  -7.283   9.739  1.00  0.00    +0.011 C 
BRANCH  56  63
ATOM     63  C   UNL     1      -7.086  -9.285   9.184  1.00  0.00    -0.022 A 
ATOM     64  C   UNL     1      -7.762  -8.921  10.357  1.00  0.00    +0.010 A 
ATOM     65  C   UNL     1      -7.825  -9.673   8.058  1.00  0.00    +0.010 A 
ATOM     66  C   UNL     1      -9.159  -8.910  10.391  1.00  0.00    +0.021 A 
ATOM     67  C   UNL     1      -9.221  -9.659   8.092  1.00  0.00    +0.021 A 
ATOM     68  C   UNL     1      -9.882  -9.270   9.256  1.00  0.00    +0.041 A 
ATOM     69 Cl   UNL     1     -11.599  -9.229   9.291  1.00  0.00    -0.084 Cl
ENDBRANCH  56  63
ENDBRANCH  54  55
ENDBRANCH  52  54
ENDBRANCH  46  47
ENDBRANCH  38  41
ENDBRANCH   1  37
TORSDOF 17
ENDMDL
MODEL 6
REMARK VINA RESULT:   -10.039      5.071     13.867
REMARK INTER + INTRA:         -24.526
REMARK INTER:                 -20.121
REMARK INTRA:                  -4.406
REMARK UNBOUND:                -4.510
REMARK SMILES CC1(C)CCC(c2ccc(Cl)cc2)=C(C[NH+]2CCN(c3ccc(C(=O)NS(=O)(=O)c4ccc(N[C@H](CC[NH+]5CCOCC5)CSc5ccccc5)c(S(=O)(=O)C(F)(F)F)c4)cc3)CC2)C1
REMARK SMILES IDX 27 1 28 2 29 3 30 4 33 5 52 6 32 7 60 8 31 9 34 10 35 12
REMARK SMILES IDX 36 13 37 14 38 15 39 16 43 17 40 18 42 19 41 20 44 22 45 23
REMARK SMILES IDX 46 24 47 25 51 26 48 27 50 28 49 29 53 30 54 31 55 32 56 33
REMARK SMILES IDX 57 34 58 35 59 36 26 37 24 38 25 39 23 41 22 42 61 43 21 44
REMARK SMILES IDX 62 45 20 46 19 47 18 48 63 49 17 50 64 51 16 52 15 54 14 55
REMARK SMILES IDX 6 56 65 57 5 58 2 59 4 60 1 61 3 62 7 63 8 64 13 65 9 66
REMARK SMILES IDX 12 67 10 68 11 69
REMARK H PARENT 34 11 38 21 26 40 16 53
ROOT
ATOM      1  S   UNL     1     -15.333 -16.097  12.985  1.00  0.00    +0.264 S 
ATOM      2  O   UNL     1     -15.313 -16.036  14.431  1.00  0.00    -0.201 OA
ATOM      3  O   UNL     1     -16.351 -15.406  12.228  1.00  0.00    -0.201 OA
ENDROOT
BRANCH   1   4
ATOM      4  C   UNL     1     -15.369 -17.819  12.558  1.00  0.00    +0.089 A 
ATOM      5  C   UNL     1     -15.550 -20.525  11.712  1.00  0.00    +0.054 A 
ATOM      6  C   UNL     1     -16.401 -19.997  12.710  1.00  0.00    +0.101 A 
ATOM      7  C   UNL     1     -14.562 -19.659  11.216  1.00  0.00    +0.028 A 
ATOM      8  C   UNL     1     -16.341 -18.649  13.108  1.00  0.00    +0.045 A 
ATOM      9  C   UNL     1     -14.474 -18.320  11.618  1.00  0.00    +0.024 A 
BRANCH   5  10
ATOM     10  N   UNL     1     -15.616 -21.856  11.315  1.00  0.00    -0.380 N 
ATOM     11  H   UNL     1     -16.337 -22.075  10.616  1.00  0.00    +0.160 HD
BRANCH  10  12
ATOM     12  C   UNL     1     -14.452 -22.748  11.175  1.00  0.00    +0.095 C 
BRANCH  12  13
ATOM     13  C   UNL     1     -14.488 -23.503   9.823  1.00  0.00    +0.087 C 
BRANCH  13  14
ATOM     14  C   UNL     1     -13.322 -24.457   9.565  1.00  0.00    +0.264 C 
BRANCH  14  15
ATOM     15  N   UNL     1     -11.994 -23.720   9.635  1.00  0.00    -0.331 N 
ATOM     16  C   UNL     1     -11.736 -22.847   8.403  1.00  0.00    +0.291 C 
ATOM     17  C   UNL     1     -10.830 -24.704   9.798  1.00  0.00    +0.291 C 
ATOM     18  C   UNL     1     -10.371 -22.164   8.536  1.00  0.00    +0.221 C 
ATOM     19  C   UNL     1      -9.508 -23.933   9.858  1.00  0.00    +0.221 C 
ATOM     20  O   UNL     1      -9.326 -23.131   8.689  1.00  0.00    -0.370 OA
ATOM     21  H   UNL     1     -11.995 -23.115  10.466  1.00  0.00    +0.348 HD
ENDBRANCH  14  15
ENDBRANCH  13  14
ENDBRANCH  12  13
BRANCH  12  22
ATOM     22  C   UNL     1     -14.318 -23.656  12.424  1.00  0.00    +0.100 C 
BRANCH  22  23
ATOM     23  S   UNL     1     -12.634 -23.719  13.144  1.00  0.00    -0.124 SA
BRANCH  23  24
ATOM     24  C   UNL     1     -12.332 -21.979  13.394  1.00  0.00    +0.007 A 
ATOM     25  C   UNL     1     -13.054 -21.303  14.384  1.00  0.00    +0.015 A 
ATOM     26  C   UNL     1     -11.423 -21.267  12.606  1.00  0.00    +0.015 A 
ATOM     27  C   UNL     1     -12.845 -19.940  14.604  1.00  0.00    +0.001 A 
ATOM     28  C   UNL     1     -11.215 -19.903  12.826  1.00  0.00    +0.001 A 
ATOM     29  C   UNL     1     -11.922 -19.242  13.827  1.00  0.00    +0.000 A 
ENDBRANCH  23  24
ENDBRANCH  22  23
ENDBRANCH  12  22
ENDBRANCH  10  12
ENDBRANCH   5  10
BRANCH   6  30
ATOM     30  S   UNL     1     -17.662 -21.022  13.468  1.00  0.00    +0.278 S 
ATOM     31  O   UNL     1     -18.117 -20.272  14.635  1.00  0.00    -0.214 OA
ATOM     32  O   UNL     1     -17.055 -22.330  13.669  1.00  0.00    -0.214 OA
BRANCH  30  33
ATOM     33  C   UNL     1     -18.936 -21.085  12.160  1.00  0.00    +0.501 C 
ATOM     34  F   UNL     1     -18.541 -20.423  11.034  1.00  0.00    -0.156 F 
ATOM     35  F   UNL     1     -19.222 -22.361  11.781  1.00  0.00    -0.156 F 
ATOM     36  F   UNL     1     -20.113 -20.522  12.549  1.00  0.00    -0.156 F 
ENDBRANCH  30  33
ENDBRANCH   6  30
ENDBRANCH   1   4
BRANCH   1  37
ATOM     37  N   UNL     1     -13.841 -15.559  12.495  1.00  0.00    -0.245 N 
ATOM     38  C   UNL     1     -13.408 -14.230  12.556  1.00  0.00    +0.264 C 
ATOM     39  O   UNL     1     -14.149 -13.296  12.808  1.00  0.00    -0.268 OA
ATOM     40  H   UNL     1     -13.300 -16.282  12.034  1.00  0.00    +0.183 HD
BRANCH  38  41
ATOM     41  C   UNL     1     -11.965 -14.013  12.253  1.00  0.00    +0.040 A 
ATOM     42  C   UNL     1     -11.295 -14.696  11.235  1.00  0.00    +0.016 A 
ATOM     43  C   UNL     1     -11.256 -13.091  13.025  1.00  0.00    +0.016 A 
ATOM     44  C   UNL     1      -9.931 -14.459  10.999  1.00  0.00    +0.027 A 
ATOM     45  C   UNL     1      -9.896 -12.860  12.778  1.00  0.00    +0.027 A 
ATOM     46  C   UNL     1      -9.195 -13.548  11.771  1.00  0.00    +0.037 A 
BRANCH  46  47
ATOM     47  N   UNL     1      -7.826 -13.287  11.577  1.00  0.00    -0.360 N 
ATOM     48  C   UNL     1      -7.536 -12.616  10.283  1.00  0.00    +0.178 C 
ATOM     49  C   UNL     1      -7.059 -12.750  12.722  1.00  0.00    +0.178 C 
ATOM     50  C   UNL     1      -6.021 -12.629   9.983  1.00  0.00    +0.284 C 
ATOM     51  C   UNL     1      -5.544 -12.780  12.428  1.00  0.00    +0.284 C 
ATOM     52  N   UNL     1      -5.201 -12.053  11.131  1.00  0.00    -0.329 N 
ATOM     53  H   UNL     1      -4.222 -12.279  10.929  1.00  0.00    +0.348 HD
BRANCH  52  54
ATOM     54  C   UNL     1      -5.275 -10.550  11.252  1.00  0.00    +0.295 C 
BRANCH  54  55
ATOM     55  C   UNL     1      -4.755  -9.823  10.032  1.00  0.00    -0.012 C 
ATOM     56  C   UNL     1      -5.531  -9.229   9.094  1.00  0.00    -0.036 C 
ATOM     57  C   UNL     1      -3.237  -9.753   9.941  1.00  0.00    +0.043 C 
ATOM     58  C   UNL     1      -4.973  -8.508   7.882  1.00  0.00    +0.037 C 
ATOM     59  C   UNL     1      -2.677  -8.672   8.988  1.00  0.00    -0.031 C 
ATOM     60  C   UNL     1      -3.473  -8.718   7.671  1.00  0.00    +0.011 C 
ATOM     61  C   UNL     1      -1.195  -8.968   8.698  1.00  0.00    +0.011 C 
ATOM     62  C   UNL     1      -2.767  -7.278   9.640  1.00  0.00    +0.011 C 
BRANCH  56  63
ATOM     63  C   UNL     1      -7.004  -9.228   9.161  1.00  0.00    -0.022 A 
ATOM     64  C   UNL     1      -7.763  -9.634   8.055  1.00  0.00    +0.010 A 
ATOM     65  C   UNL     1      -7.661  -8.815  10.329  1.00  0.00    +0.010 A 
ATOM     66  C   UNL     1      -9.158  -9.662   8.127  1.00  0.00    +0.021 A 
ATOM     67  C   UNL     1      -9.056  -8.846  10.402  1.00  0.00    +0.021 A 
ATOM     68  C   UNL     1      -9.798  -9.276   9.304  1.00  0.00    +0.041 A 
ATOM     69 Cl   UNL     1     -11.512  -9.339   9.401  1.00  0.00    -0.084 Cl
ENDBRANCH  56  63
ENDBRANCH  54  55
ENDBRANCH  52  54
ENDBRANCH  46  47
ENDBRANCH  38  41
ENDBRANCH   1  37
TORSDOF 17
ENDMDL
MODEL 7
REMARK VINA RESULT:    -9.915      5.101     14.373
REMARK INTER + INTRA:         -24.279
REMARK INTER:                 -21.246
REMARK INTRA:                  -3.034
REMARK UNBOUND:                -4.510
REMARK SMILES CC1(C)CCC(c2ccc(Cl)cc2)=C(C[NH+]2CCN(c3ccc(C(=O)NS(=O)(=O)c4ccc(N[C@H](CC[NH+]5CCOCC5)CSc5ccccc5)c(S(=O)(=O)C(F)(F)F)c4)cc3)CC2)C1
REMARK SMILES IDX 27 1 28 2 29 3 30 4 33 5 52 6 32 7 60 8 31 9 34 10 35 12
REMARK SMILES IDX 36 13 37 14 38 15 39 16 43 17 40 18 42 19 41 20 44 22 45 23
REMARK SMILES IDX 46 24 47 25 51 26 48 27 50 28 49 29 53 30 54 31 55 32 56 33
REMARK SMILES IDX 57 34 58 35 59 36 26 37 24 38 25 39 23 41 22 42 61 43 21 44
REMARK SMILES IDX 62 45 20 46 19 47 18 48 63 49 17 50 64 51 16 52 15 54 14 55
REMARK SMILES IDX 6 56 65 57 5 58 2 59 4 60 1 61 3 62 7 63 8 64 13 65 9 66
REMARK SMILES IDX 12 67 10 68 11 69
REMARK H PARENT 34 11 38 21 26 40 16 53
ROOT
ATOM      1  S   UNL     1     -15.296 -16.116  13.035  1.00  0.00    +0.264 S 
ATOM      2  O   UNL     1     -15.383 -15.761  14.436  1.00  0.00    -0.201 OA
ATOM      3  O   UNL     1     -16.294 -15.667  12.093  1.00  0.00    -0.201 OA
ENDROOT
BRANCH   1   4
ATOM      4  C   UNL     1     -15.204 -17.887  12.973  1.00  0.00    +0.089 A 
ATOM      5  C   UNL     1     -14.953 -20.703  12.693  1.00  0.00    +0.054 A 
ATOM      6  C   UNL     1     -16.108 -20.011  12.264  1.00  0.00    +0.101 A 
ATOM      7  C   UNL     1     -13.969 -19.932  13.333  1.00  0.00    +0.028 A 
ATOM      8  C   UNL     1     -16.225 -18.612  12.367  1.00  0.00    +0.045 A 
ATOM      9  C   UNL     1     -14.079 -18.542  13.464  1.00  0.00    +0.024 A 
BRANCH   5  10
ATOM     10  N   UNL     1     -14.837 -22.085  12.584  1.00  0.00    -0.380 N 
ATOM     11  H   UNL     1     -15.681 -22.576  12.261  1.00  0.00    +0.160 HD
BRANCH  10  12
ATOM     12  C   UNL     1     -13.616 -22.794  12.165  1.00  0.00    +0.095 C 
BRANCH  12  13
ATOM     13  C   UNL     1     -13.096 -22.255  10.810  1.00  0.00    +0.087 C 
BRANCH  13  14
ATOM     14  C   UNL     1     -11.714 -21.603  10.841  1.00  0.00    +0.264 C 
BRANCH  14  15
ATOM     15  N   UNL     1     -10.656 -22.553  10.303  1.00  0.00    -0.331 N 
ATOM     16  C   UNL     1      -9.499 -22.767  11.284  1.00  0.00    +0.291 C 
ATOM     17  C   UNL     1     -10.089 -22.045   8.971  1.00  0.00    +0.291 C 
ATOM     18  C   UNL     1      -8.464 -23.708  10.659  1.00  0.00    +0.221 C 
ATOM     19  C   UNL     1      -9.022 -23.018   8.460  1.00  0.00    +0.221 C 
ATOM     20  O   UNL     1      -7.975 -23.184   9.420  1.00  0.00    -0.370 OA
ATOM     21  H   UNL     1     -11.093 -23.464  10.115  1.00  0.00    +0.348 HD
ENDBRANCH  14  15
ENDBRANCH  13  14
ENDBRANCH  12  13
BRANCH  12  22
ATOM     22  C   UNL     1     -13.842 -24.326  12.214  1.00  0.00    +0.100 C 
BRANCH  22  23
ATOM     23  S   UNL     1     -13.419 -25.210  10.664  1.00  0.00    -0.124 SA
BRANCH  23  24
ATOM     24  C   UNL     1     -12.977 -26.807  11.323  1.00  0.00    +0.007 A 
ATOM     25  C   UNL     1     -12.204 -26.868  12.488  1.00  0.00    +0.015 A 
ATOM     26  C   UNL     1     -13.351 -27.997  10.689  1.00  0.00    +0.015 A 
ATOM     27  C   UNL     1     -11.838 -28.102  13.029  1.00  0.00    +0.001 A 
ATOM     28  C   UNL     1     -12.984 -29.231  11.232  1.00  0.00    +0.001 A 
ATOM     29  C   UNL     1     -12.232 -29.282  12.403  1.00  0.00    +0.000 A 
ENDBRANCH  23  24
ENDBRANCH  22  23
ENDBRANCH  12  22
ENDBRANCH  10  12
ENDBRANCH   5  10
BRANCH   6  30
ATOM     30  S   UNL     1     -17.465 -20.894  11.491  1.00  0.00    +0.278 S 
ATOM     31  O   UNL     1     -16.843 -22.000  10.772  1.00  0.00    -0.214 OA
ATOM     32  O   UNL     1     -18.216 -19.901  10.736  1.00  0.00    -0.214 OA
BRANCH  30  33
ATOM     33  C   UNL     1     -18.416 -21.471  12.940  1.00  0.00    +0.501 C 
ATOM     34  F   UNL     1     -17.976 -20.897  14.097  1.00  0.00    -0.156 F 
ATOM     35  F   UNL     1     -19.741 -21.177  12.838  1.00  0.00    -0.156 F 
ATOM     36  F   UNL     1     -18.329 -22.819  13.119  1.00  0.00    -0.156 F 
ENDBRANCH  30  33
ENDBRANCH   6  30
ENDBRANCH   1   4
BRANCH   1  37
ATOM     37  N   UNL     1     -13.806 -15.586  12.532  1.00  0.00    -0.245 N 
ATOM     38  C   UNL     1     -13.390 -14.250  12.523  1.00  0.00    +0.264 C 
ATOM     39  O   UNL     1     -14.146 -13.313  12.715  1.00  0.00    -0.268 OA
ATOM     40  H   UNL     1     -13.249 -16.326  12.119  1.00  0.00    +0.183 HD
BRANCH  38  41
ATOM     41  C   UNL     1     -11.947 -14.030  12.224  1.00  0.00    +0.040 A 
ATOM     42  C   UNL     1     -11.266 -14.731  11.225  1.00  0.00    +0.016 A 
ATOM     43  C   UNL     1     -11.248 -13.089  12.981  1.00  0.00    +0.016 A 
ATOM     44  C   UNL     1      -9.902 -14.490  10.992  1.00  0.00    +0.027 A 
ATOM     45  C   UNL     1      -9.888 -12.854  12.738  1.00  0.00    +0.027 A 
ATOM     46  C   UNL     1      -9.177 -13.559  11.750  1.00  0.00    +0.037 A 
BRANCH  46  47
ATOM     47  N   UNL     1      -7.808 -13.294  11.558  1.00  0.00    -0.360 N 
ATOM     48  C   UNL     1      -7.518 -12.621  10.266  1.00  0.00    +0.178 C 
ATOM     49  C   UNL     1      -7.045 -12.755  12.705  1.00  0.00    +0.178 C 
ATOM     50  C   UNL     1      -6.002 -12.629   9.968  1.00  0.00    +0.284 C 
ATOM     51  C   UNL     1      -5.529 -12.781  12.415  1.00  0.00    +0.284 C 
ATOM     52  N   UNL     1      -5.185 -12.052  11.119  1.00  0.00    -0.329 N 
ATOM     53  H   UNL     1      -4.206 -12.275  10.918  1.00  0.00    +0.348 HD
BRANCH  52  54
ATOM     54  C   UNL     1      -5.264 -10.549  11.240  1.00  0.00    +0.295 C 
BRANCH  54  55
ATOM     55  C   UNL     1      -4.722  -9.820  10.032  1.00  0.00    -0.012 C 
ATOM     56  C   UNL     1      -5.480  -9.239   9.071  1.00  0.00    -0.036 C 
ATOM     57  C   UNL     1      -3.203  -9.730   9.981  1.00  0.00    +0.043 C 
ATOM     58  C   UNL     1      -4.899  -8.515   7.872  1.00  0.00    +0.037 C 
ATOM     59  C   UNL     1      -2.632  -8.645   9.039  1.00  0.00    -0.031 C 
ATOM     60  C   UNL     1      -3.391  -8.706   7.702  1.00  0.00    +0.011 C 
ATOM     61  C   UNL     1      -1.139  -8.922   8.790  1.00  0.00    +0.011 C 
ATOM     62  C   UNL     1      -2.758  -7.249   9.684  1.00  0.00    +0.011 C 
BRANCH  56  63
ATOM     63  C   UNL     1      -6.954  -9.257   9.099  1.00  0.00    -0.022 A 
ATOM     64  C   UNL     1      -7.646  -8.846  10.246  1.00  0.00    +0.010 A 
ATOM     65  C   UNL     1      -7.679  -9.692   7.980  1.00  0.00    +0.010 A 
ATOM     66  C   UNL     1      -9.043  -8.835  10.263  1.00  0.00    +0.021 A 
ATOM     67  C   UNL     1      -9.076  -9.679   7.996  1.00  0.00    +0.021 A 
ATOM     68  C   UNL     1      -9.752  -9.243   9.134  1.00  0.00    +0.041 A 
ATOM     69 Cl   UNL     1     -11.469  -9.202   9.147  1.00  0.00    -0.084 Cl
ENDBRANCH  56  63
ENDBRANCH  54  55
ENDBRANCH  52  54
ENDBRANCH  46  47
ENDBRANCH  38  41
ENDBRANCH   1  37
TORSDOF 17
ENDMDL
MODEL 8
REMARK VINA RESULT:    -9.912      1.700      2.389
REMARK INTER + INTRA:         -24.272
REMARK INTER:                 -20.323
REMARK INTRA:                  -3.949
REMARK UNBOUND:                -4.510
REMARK SMILES CC1(C)CCC(c2ccc(Cl)cc2)=C(C[NH+]2CCN(c3ccc(C(=O)NS(=O)(=O)c4ccc(N[C@H](CC[NH+]5CCOCC5)CSc5ccccc5)c(S(=O)(=O)C(F)(F)F)c4)cc3)CC2)C1
REMARK SMILES IDX 27 1 28 2 29 3 30 4 33 5 52 6 32 7 60 8 31 9 34 10 35 12
REMARK SMILES IDX 36 13 37 14 38 15 39 16 43 17 40 18 42 19 41 20 44 22 45 23
REMARK SMILES IDX 46 24 47 25 51 26 48 27 50 28 49 29 53 30 54 31 55 32 56 33
REMARK SMILES IDX 57 34 58 35 59 36 26 37 24 38 25 39 23 41 22 42 61 43 21 44
REMARK SMILES IDX 62 45 20 46 19 47 18 48 63 49 17 50 64 51 16 52 15 54 14 55
REMARK SMILES IDX 6 56 65 57 5 58 2 59 4 60 1 61 3 62 7 63 8 64 13 65 9 66
REMARK SMILES IDX 12 67 10 68 11 69
REMARK H PARENT 34 11 38 21 26 40 16 53
ROOT
ATOM      1  S   UNL     1     -10.154 -11.766  13.994  1.00  0.00    +0.264 S 
ATOM      2  O   UNL     1     -11.062 -10.758  13.488  1.00  0.00    -0.201 OA
ATOM      3  O   UNL     1      -9.840 -11.842  15.402  1.00  0.00    -0.201 OA
ENDROOT
BRANCH   1   4
ATOM      4  C   UNL     1      -8.645 -11.583  13.079  1.00  0.00    +0.089 A 
ATOM      5  C   UNL     1      -6.278 -11.089  11.588  1.00  0.00    +0.054 A 
ATOM      6  C   UNL     1      -7.451 -11.590  10.980  1.00  0.00    +0.101 A 
ATOM      7  C   UNL     1      -6.323 -10.921  12.982  1.00  0.00    +0.028 A 
ATOM      8  C   UNL     1      -8.638 -11.803  11.705  1.00  0.00    +0.045 A 
ATOM      9  C   UNL     1      -7.490 -11.150  13.722  1.00  0.00    +0.024 A 
BRANCH   5  10
ATOM     10  N   UNL     1      -5.107 -10.872  10.868  1.00  0.00    -0.380 N 
ATOM     11  H   UNL     1      -4.861 -11.607  10.193  1.00  0.00    +0.160 HD
BRANCH  10  12
ATOM     12  C   UNL     1      -4.633  -9.553  10.416  1.00  0.00    +0.095 C 
BRANCH  12  13
ATOM     13  C   UNL     1      -3.559  -9.696   9.309  1.00  0.00    +0.087 C 
BRANCH  13  14
ATOM     14  C   UNL     1      -3.012  -8.386   8.742  1.00  0.00    +0.264 C 
BRANCH  14  15
ATOM     15  N   UNL     1      -1.528  -8.247   9.040  1.00  0.00    -0.331 N 
ATOM     16  C   UNL     1      -0.894  -9.558   9.514  1.00  0.00    +0.291 C 
ATOM     17  C   UNL     1      -1.282  -7.165  10.099  1.00  0.00    +0.291 C 
ATOM     18  C   UNL     1       0.590  -9.328   9.822  1.00  0.00    +0.221 C 
ATOM     19  C   UNL     1       0.220  -7.054  10.382  1.00  0.00    +0.221 C 
ATOM     20  O   UNL     1       0.756  -8.308  10.811  1.00  0.00    -0.370 OA
ATOM     21  H   UNL     1      -1.045  -7.945   8.184  1.00  0.00    +0.348 HD
ENDBRANCH  14  15
ENDBRANCH  13  14
ENDBRANCH  12  13
BRANCH  12  22
ATOM     22  C   UNL     1      -4.203  -8.692  11.632  1.00  0.00    +0.100 C 
BRANCH  22  23
ATOM     23  S   UNL     1      -4.896  -6.995  11.647  1.00  0.00    -0.124 SA
BRANCH  23  24
ATOM     24  C   UNL     1      -6.520  -7.324  12.309  1.00  0.00    +0.007 A 
ATOM     25  C   UNL     1      -6.712  -7.259  13.693  1.00  0.00    +0.015 A 
ATOM     26  C   UNL     1      -7.594  -7.678  11.486  1.00  0.00    +0.015 A 
ATOM     27  C   UNL     1      -7.970  -7.514  14.244  1.00  0.00    +0.001 A 
ATOM     28  C   UNL     1      -8.852  -7.933  12.038  1.00  0.00    +0.001 A 
ATOM     29  C   UNL     1      -9.040  -7.846  13.416  1.00  0.00    +0.000 A 
ENDBRANCH  23  24
ENDBRANCH  22  23
ENDBRANCH  12  22
ENDBRANCH  10  12
ENDBRANCH   5  10
BRANCH   6  30
ATOM     30  S   UNL     1      -7.498 -11.909   9.215  1.00  0.00    +0.278 S 
ATOM     31  O   UNL     1      -8.469 -12.984   9.046  1.00  0.00    -0.214 OA
ATOM     32  O   UNL     1      -6.119 -12.139   8.809  1.00  0.00    -0.214 OA
BRANCH  30  33
ATOM     33  C   UNL     1      -8.117 -10.320   8.560  1.00  0.00    +0.501 C 
ATOM     34  F   UNL     1      -7.148  -9.360   8.554  1.00  0.00    -0.156 F 
ATOM     35  F   UNL     1      -8.564 -10.431   7.279  1.00  0.00    -0.156 F 
ATOM     36  F   UNL     1      -9.152  -9.822   9.291  1.00  0.00    -0.156 F 
ENDBRANCH  30  33
ENDBRANCH   6  30
ENDBRANCH   1   4
BRANCH   1  37
ATOM     37  N   UNL     1     -10.785 -13.221  13.505  1.00  0.00    -0.245 N 
ATOM     38  C   UNL     1     -11.641 -13.397  12.412  1.00  0.00    +0.264 C 
ATOM     39  O   UNL     1     -12.158 -12.471  11.811  1.00  0.00    -0.268 OA
ATOM     40  H   UNL     1     -10.576 -13.972  14.153  1.00  0.00    +0.183 HD
BRANCH  38  41
ATOM     41  C   UNL     1     -11.918 -14.813  12.038  1.00  0.00    +0.040 A 
ATOM     42  C   UNL     1     -12.324 -15.191  10.756  1.00  0.00    +0.016 A 
ATOM     43  C   UNL     1     -11.770 -15.800  13.015  1.00  0.00    +0.016 A 
ATOM     44  C   UNL     1     -12.581 -16.539  10.460  1.00  0.00    +0.027 A 
ATOM     45  C   UNL     1     -12.025 -17.143  12.708  1.00  0.00    +0.027 A 
ATOM     46  C   UNL     1     -12.452 -17.545  11.430  1.00  0.00    +0.037 A 
BRANCH  46  47
ATOM     47  N   UNL     1     -12.709 -18.906  11.181  1.00  0.00    -0.360 N 
ATOM     48  C   UNL     1     -11.485 -19.683  10.855  1.00  0.00    +0.178 C 
ATOM     49  C   UNL     1     -13.645 -19.606  12.087  1.00  0.00    +0.178 C 
ATOM     50  C   UNL     1     -11.849 -21.077  10.298  1.00  0.00    +0.284 C 
ATOM     51  C   UNL     1     -14.023 -20.992  11.521  1.00  0.00    +0.284 C 
ATOM     52  N   UNL     1     -12.790 -21.840  11.223  1.00  0.00    -0.329 N 
ATOM     53  H   UNL     1     -13.124 -22.650  10.691  1.00  0.00    +0.348 HD
BRANCH  52  54
ATOM     54  C   UNL     1     -12.128 -22.388  12.463  1.00  0.00    +0.295 C 
BRANCH  54  55
ATOM     55  C   UNL     1     -12.179 -23.896  12.555  1.00  0.00    -0.012 C 
ATOM     56  C   UNL     1     -11.322 -24.741  11.933  1.00  0.00    -0.036 C 
ATOM     57  C   UNL     1     -13.271 -24.434  13.469  1.00  0.00    +0.043 C 
ATOM     58  C   UNL     1     -11.405 -26.251  12.049  1.00  0.00    +0.037 C 
ATOM     59  C   UNL     1     -13.087 -25.897  13.937  1.00  0.00    -0.031 C 
ATOM     60  C   UNL     1     -12.683 -26.753  12.723  1.00  0.00    +0.011 C 
ATOM     61  C   UNL     1     -14.417 -26.419  14.508  1.00  0.00    +0.011 C 
ATOM     62  C   UNL     1     -12.023 -25.978  15.050  1.00  0.00    +0.011 C 
BRANCH  56  63
ATOM     63  C   UNL     1     -10.220 -24.270  11.074  1.00  0.00    -0.022 A 
ATOM     64  C   UNL     1      -9.247 -23.401  11.586  1.00  0.00    +0.010 A 
ATOM     65  C   UNL     1     -10.137 -24.680   9.736  1.00  0.00    +0.010 A 
ATOM     66  C   UNL     1      -8.185 -22.977  10.782  1.00  0.00    +0.021 A 
ATOM     67  C   UNL     1      -9.074 -24.259   8.933  1.00  0.00    +0.021 A 
ATOM     68  C   UNL     1      -8.099 -23.415   9.462  1.00  0.00    +0.041 A 
ATOM     69 Cl   UNL     1      -6.778 -22.916   8.483  1.00  0.00    -0.084 Cl
ENDBRANCH  56  63
ENDBRANCH  54  55
ENDBRANCH  52  54
ENDBRANCH  46  47
ENDBRANCH  38  41
ENDBRANCH   1  37
TORSDOF 17
ENDMDL
MODEL 9
REMARK VINA RESULT:    -9.841      4.446     14.473
REMARK INTER + INTRA:         -24.130
REMARK INTER:                 -21.334
REMARK INTRA:                  -2.796
REMARK UNBOUND:                -4.510
REMARK SMILES CC1(C)CCC(c2ccc(Cl)cc2)=C(C[NH+]2CCN(c3ccc(C(=O)NS(=O)(=O)c4ccc(N[C@H](CC[NH+]5CCOCC5)CSc5ccccc5)c(S(=O)(=O)C(F)(F)F)c4)cc3)CC2)C1
REMARK SMILES IDX 27 1 28 2 29 3 30 4 33 5 52 6 32 7 60 8 31 9 34 10 35 12
REMARK SMILES IDX 36 13 37 14 38 15 39 16 43 17 40 18 42 19 41 20 44 22 45 23
REMARK SMILES IDX 46 24 47 25 51 26 48 27 50 28 49 29 53 30 54 31 55 32 56 33
REMARK SMILES IDX 57 34 58 35 59 36 26 37 24 38 25 39 23 41 22 42 61 43 21 44
REMARK SMILES IDX 62 45 20 46 19 47 18 48 63 49 17 50 64 51 16 52 15 54 14 55
REMARK SMILES IDX 6 56 65 57 5 58 2 59 4 60 1 61 3 62 7 63 8 64 13 65 9 66
REMARK SMILES IDX 12 67 10 68 11 69
REMARK H PARENT 34 11 38 21 26 40 16 53
ROOT
ATOM      1  S   UNL     1     -15.210 -16.210  12.638  1.00  0.00    +0.264 S 
ATOM      2  O   UNL     1     -15.736 -16.151  13.985  1.00  0.00    -0.201 OA
ATOM      3  O   UNL     1     -15.926 -15.611  11.535  1.00  0.00    -0.201 OA
ENDROOT
BRANCH   1   4
ATOM      4  C   UNL     1     -14.939 -17.927  12.281  1.00  0.00    +0.089 A 
ATOM      5  C   UNL     1     -14.654 -20.720  11.852  1.00  0.00    +0.054 A 
ATOM      6  C   UNL     1     -13.821 -20.015  12.749  1.00  0.00    +0.101 A 
ATOM      7  C   UNL     1     -15.580 -19.951  11.128  1.00  0.00    +0.028 A 
ATOM      8  C   UNL     1     -13.979 -18.639  12.995  1.00  0.00    +0.045 A 
ATOM      9  C   UNL     1     -15.736 -18.576  11.343  1.00  0.00    +0.024 A 
BRANCH   5  10
ATOM     10  N   UNL     1     -14.499 -22.083  11.617  1.00  0.00    -0.380 N 
ATOM     11  H   UNL     1     -15.122 -22.698  12.155  1.00  0.00    +0.160 HD
BRANCH  10  12
ATOM     12  C   UNL     1     -14.164 -22.676  10.311  1.00  0.00    +0.095 C 
BRANCH  12  13
ATOM     13  C   UNL     1     -14.414 -24.204  10.312  1.00  0.00    +0.087 C 
BRANCH  13  14
ATOM     14  C   UNL     1     -13.587 -25.011  11.313  1.00  0.00    +0.264 C 
BRANCH  14  15
ATOM     15  N   UNL     1     -14.150 -26.414  11.472  1.00  0.00    -0.331 N 
ATOM     16  C   UNL     1     -14.163 -26.884  12.930  1.00  0.00    +0.291 C 
ATOM     17  C   UNL     1     -13.354 -27.422  10.634  1.00  0.00    +0.291 C 
ATOM     18  C   UNL     1     -14.714 -28.311  13.004  1.00  0.00    +0.221 C 
ATOM     19  C   UNL     1     -13.940 -28.825  10.823  1.00  0.00    +0.221 C 
ATOM     20  O   UNL     1     -13.935 -29.204  12.201  1.00  0.00    -0.370 OA
ATOM     21  H   UNL     1     -15.115 -26.426  11.120  1.00  0.00    +0.348 HD
ENDBRANCH  14  15
ENDBRANCH  13  14
ENDBRANCH  12  13
BRANCH  12  22
ATOM     22  C   UNL     1     -12.739 -22.249   9.878  1.00  0.00    +0.100 C 
BRANCH  22  23
ATOM     23  S   UNL     1     -12.057 -23.192   8.461  1.00  0.00    -0.124 SA
BRANCH  23  24
ATOM     24  C   UNL     1     -10.370 -23.398   9.002  1.00  0.00    +0.007 A 
ATOM     25  C   UNL     1     -10.102 -24.267  10.066  1.00  0.00    +0.015 A 
ATOM     26  C   UNL     1      -9.315 -22.690   8.417  1.00  0.00    +0.015 A 
ATOM     27  C   UNL     1      -8.793 -24.449  10.516  1.00  0.00    +0.001 A 
ATOM     28  C   UNL     1      -8.006 -22.873   8.869  1.00  0.00    +0.001 A 
ATOM     29  C   UNL     1      -7.745 -23.756   9.915  1.00  0.00    +0.000 A 
ENDBRANCH  23  24
ENDBRANCH  22  23
ENDBRANCH  12  22
ENDBRANCH  10  12
ENDBRANCH   5  10
BRANCH   6  30
ATOM     30  S   UNL     1     -12.554 -20.875  13.685  1.00  0.00    +0.278 S 
ATOM     31  O   UNL     1     -12.980 -22.270  13.715  1.00  0.00    -0.214 OA
ATOM     32  O   UNL     1     -12.421 -20.155  14.943  1.00  0.00    -0.214 OA
BRANCH  30  33
ATOM     33  C   UNL     1     -11.079 -20.635  12.634  1.00  0.00    +0.501 C 
ATOM     34  F   UNL     1     -10.578 -21.821  12.184  1.00  0.00    -0.156 F 
ATOM     35  F   UNL     1     -11.349 -19.883  11.532  1.00  0.00    -0.156 F 
ATOM     36  F   UNL     1     -10.064 -20.010  13.293  1.00  0.00    -0.156 F 
ENDBRANCH  30  33
ENDBRANCH   6  30
ENDBRANCH   1   4
BRANCH   1  37
ATOM     37  N   UNL     1     -13.694 -15.539  12.721  1.00  0.00    -0.245 N 
ATOM     38  C   UNL     1     -12.890 -15.234  11.618  1.00  0.00    +0.264 C 
ATOM     39  O   UNL     1     -13.147 -15.595  10.482  1.00  0.00    -0.268 OA
ATOM     40  H   UNL     1     -13.351 -15.472  13.673  1.00  0.00    +0.183 HD
BRANCH  38  41
ATOM     41  C   UNL     1     -11.657 -14.454  11.921  1.00  0.00    +0.040 A 
ATOM     42  C   UNL     1     -10.466 -14.614  11.207  1.00  0.00    +0.016 A 
ATOM     43  C   UNL     1     -11.695 -13.530  12.966  1.00  0.00    +0.016 A 
ATOM     44  C   UNL     1      -9.330 -13.859  11.541  1.00  0.00    +0.027 A 
ATOM     45  C   UNL     1     -10.557 -12.779  13.289  1.00  0.00    +0.027 A 
ATOM     46  C   UNL     1      -9.342 -12.935  12.597  1.00  0.00    +0.037 A 
BRANCH  46  47
ATOM     47  N   UNL     1      -8.225 -12.166  12.972  1.00  0.00    -0.360 N 
ATOM     48  C   UNL     1      -7.236 -11.996  11.877  1.00  0.00    +0.178 C 
ATOM     49  C   UNL     1      -8.470 -10.938  13.760  1.00  0.00    +0.178 C 
ATOM     50  C   UNL     1      -5.909 -11.418  12.416  1.00  0.00    +0.284 C 
ATOM     51  C   UNL     1      -7.146 -10.370  14.315  1.00  0.00    +0.284 C 
ATOM     52  N   UNL     1      -6.121 -10.133  13.209  1.00  0.00    -0.329 N 
ATOM     53  H   UNL     1      -5.233  -9.937  13.682  1.00  0.00    +0.348 HD
BRANCH  52  54
ATOM     54  C   UNL     1      -6.429  -8.925  12.359  1.00  0.00    +0.295 C 
BRANCH  54  55
ATOM     55  C   UNL     1      -5.719  -8.933  11.024  1.00  0.00    -0.012 C 
ATOM     56  C   UNL     1      -6.334  -8.987   9.818  1.00  0.00    -0.036 C 
ATOM     57  C   UNL     1      -4.204  -8.824  11.117  1.00  0.00    +0.043 C 
ATOM     58  C   UNL     1      -5.588  -8.994   8.498  1.00  0.00    +0.037 C 
ATOM     59  C   UNL     1      -3.487  -8.388   9.818  1.00  0.00    -0.031 C 
ATOM     60  C   UNL     1      -4.077  -9.186   8.641  1.00  0.00    +0.011 C 
ATOM     61  C   UNL     1      -1.984  -8.696   9.938  1.00  0.00    +0.011 C 
ATOM     62  C   UNL     1      -3.648  -6.871   9.594  1.00  0.00    +0.011 C 
BRANCH  56  63
ATOM     63  C   UNL     1      -7.801  -9.047   9.673  1.00  0.00    -0.022 A 
ATOM     64  C   UNL     1      -8.375  -9.501   8.478  1.00  0.00    +0.010 A 
ATOM     65  C   UNL     1      -8.635  -8.644  10.725  1.00  0.00    +0.010 A 
ATOM     66  C   UNL     1      -9.764  -9.587   8.350  1.00  0.00    +0.021 A 
ATOM     67  C   UNL     1     -10.023  -8.732  10.599  1.00  0.00    +0.021 A 
ATOM     68  C   UNL     1     -10.581  -9.210   9.415  1.00  0.00    +0.041 A 
ATOM     69 Cl   UNL     1     -12.288  -9.342   9.266  1.00  0.00    -0.084 Cl
ENDBRANCH  56  63
ENDBRANCH  54  55
ENDBRANCH  52  54
ENDBRANCH  46  47
ENDBRANCH  38  41
ENDBRANCH   1  37
TORSDOF 17
ENDMDL
