MODEL 1
REMARK VINA RESULT:   -10.507      0.000      0.000
REMARK INTER + INTRA:         -25.464
REMARK INTER:                 -20.950
REMARK INTRA:                  -4.514
REMARK UNBOUND:                -4.514
REMARK SMILES CC1(C)CCC(c2ccc(Cl)cc2)=C(C[NH+]2CCN(c3ccc(C(=O)NS(=O)(=O)c4ccc(N[C@H](CC[NH+]5CCOCC5)CSc5ccccc5)c(S(=O)(=O)C(F)(F)F)c4)cc3)CC2)C1
REMARK SMILES IDX 27 1 28 2 29 3 30 4 33 5 52 6 32 7 60 8 31 9 34 10 35 12
REMARK SMILES IDX 36 13 37 14 38 15 39 16 43 17 40 18 42 19 41 20 44 22 45 23
REMARK SMILES IDX 46 24 47 25 51 26 48 27 50 28 49 29 53 30 54 31 55 32 56 33
REMARK SMILES IDX 57 34 58 35 59 36 26 37 24 38 25 39 23 41 22 42 61 43 21 44
REMARK SMILES IDX 62 45 20 46 19 47 18 48 63 49 17 50 64 51 16 52 15 54 14 55
REMARK SMILES IDX 6 56 65 57 5 58 2 59 4 60 1 61 3 62 7 63 8 64 13 65 9 66
REMARK SMILES IDX 12 67 10 68 11 69
REMARK H PARENT 34 11 38 21 26 40 16 53
ROOT
ATOM      1  S   UNL     1     -12.377 -11.538  11.653  1.00  0.00    +0.264 S 
ATOM      2  O   UNL     1     -13.258 -11.084  10.602  1.00  0.00    -0.201 OA
ATOM      3  O   UNL     1     -12.675 -11.301  13.048  1.00  0.00    -0.201 OA
ENDROOT
BRANCH   1   4
ATOM      4  C   UNL     1     -10.785 -10.841  11.304  1.00  0.00    +0.089 A 
ATOM      5  C   UNL     1      -8.285  -9.631  10.688  1.00  0.00    +0.054 A 
ATOM      6  C   UNL     1      -8.407 -11.015  10.965  1.00  0.00    +0.101 A 
ATOM      7  C   UNL     1      -9.452  -8.870  10.837  1.00  0.00    +0.028 A 
ATOM      8  C   UNL     1      -9.646 -11.629  11.220  1.00  0.00    +0.045 A 
ATOM      9  C   UNL     1     -10.688  -9.461  11.137  1.00  0.00    +0.024 A 
BRANCH   5  10
ATOM     10  N   UNL     1      -7.029  -9.060  10.400  1.00  0.00    -0.380 N 
ATOM     11  H   UNL     1      -7.073  -8.770   9.398  1.00  0.00    +0.160 HD
BRANCH  10  12
ATOM     12  C   UNL     1      -6.469  -7.887  11.122  1.00  0.00    +0.095 C 
BRANCH  12  13
ATOM     13  C   UNL     1      -5.328  -7.183  10.371  1.00  0.00    +0.087 C 
BRANCH  13  14
ATOM     14  C   UNL     1      -3.971  -7.151  11.076  1.00  0.00    +0.264 C 
BRANCH  14  15
ATOM     15  N   UNL     1      -2.819  -7.550  10.189  1.00  0.00    -0.331 N 
ATOM     16  C   UNL     1      -3.301  -8.409   9.017  1.00  0.00    +0.291 C 
ATOM     17  C   UNL     1      -1.681  -8.268  10.908  1.00  0.00    +0.291 C 
ATOM     18  C   UNL     1      -2.116  -8.754   8.108  1.00  0.00    +0.221 C 
ATOM     19  C   UNL     1      -0.578  -8.621   9.902  1.00  0.00    +0.221 C 
ATOM     20  O   UNL     1      -1.092  -9.433   8.841  1.00  0.00    -0.370 OA
ATOM     21  H   UNL     1      -2.464  -6.674   9.773  1.00  0.00    +0.348 HD
ENDBRANCH  14  15
ENDBRANCH  13  14
ENDBRANCH  12  13
BRANCH  12  22
ATOM     22  C   UNL     1      -6.157  -8.127  12.615  1.00  0.00    +0.100 C 
BRANCH  22  23
ATOM     23  S   UNL     1      -7.390  -7.367  13.738  1.00  0.00    -0.124 SA
BRANCH  23  24
ATOM     24  C   UNL     1      -8.273  -8.814  14.290  1.00  0.00    +0.007 A 
ATOM     25  C   UNL     1      -7.592 -10.032  14.378  1.00  0.00    +0.015 A 
ATOM     26  C   UNL     1      -9.625  -8.759  14.642  1.00  0.00    +0.015 A 
ATOM     27  C   UNL     1      -8.262 -11.188  14.783  1.00  0.00    +0.001 A 
ATOM     28  C   UNL     1     -10.295  -9.915  15.047  1.00  0.00    +0.001 A 
ATOM     29  C   UNL     1      -9.615 -11.130  15.111  1.00  0.00    +0.000 A 
ENDBRANCH  23  24
ENDBRANCH  22  23
ENDBRANCH  12  22
ENDBRANCH  10  12
ENDBRANCH   5  10
BRANCH   6  30
ATOM     30  S   UNL     1      -6.953 -12.062  11.018  1.00  0.00    +0.278 S 
ATOM     31  O   UNL     1      -7.395 -13.337  11.570  1.00  0.00    -0.214 OA
ATOM     32  O   UNL     1      -5.908 -11.304  11.687  1.00  0.00    -0.214 OA
BRANCH  30  33
ATOM     33  C   UNL     1      -6.575 -12.242   9.250  1.00  0.00    +0.501 C 
ATOM     34  F   UNL     1      -6.297 -13.529   8.898  1.00  0.00    -0.156 F 
ATOM     35  F   UNL     1      -7.619 -11.858   8.446  1.00  0.00    -0.156 F 
ATOM     36  F   UNL     1      -5.508 -11.493   8.855  1.00  0.00    -0.156 F 
ENDBRANCH  30  33
ENDBRANCH   6  30
ENDBRANCH   1   4
BRANCH   1  37
ATOM     37  N   UNL     1     -12.244 -13.179  11.435  1.00  0.00    -0.245 N 
ATOM     38  C   UNL     1     -11.742 -14.083  12.376  1.00  0.00    +0.264 C 
ATOM     39  O   UNL     1     -11.086 -13.740  13.347  1.00  0.00    -0.268 OA
ATOM     40  H   UNL     1     -12.542 -13.463  10.509  1.00  0.00    +0.183 HD
BRANCH  38  41
ATOM     41  C   UNL     1     -12.011 -15.521  12.086  1.00  0.00    +0.040 A 
ATOM     42  C   UNL     1     -12.525 -15.866  10.834  1.00  0.00    +0.016 A 
ATOM     43  C   UNL     1     -11.764 -16.537  13.016  1.00  0.00    +0.016 A 
ATOM     44  C   UNL     1     -12.791 -17.207  10.523  1.00  0.00    +0.027 A 
ATOM     45  C   UNL     1     -12.032 -17.876  12.693  1.00  0.00    +0.027 A 
ATOM     46  C   UNL     1     -12.541 -18.244  11.438  1.00  0.00    +0.037 A 
BRANCH  46  47
ATOM     47  N   UNL     1     -12.823 -19.573  11.073  1.00  0.00    -0.360 N 
ATOM     48  C   UNL     1     -13.812 -20.313  11.886  1.00  0.00    +0.178 C 
ATOM     49  C   UNL     1     -11.609 -20.357  10.733  1.00  0.00    +0.178 C 
ATOM     50  C   UNL     1     -14.213 -21.634  11.195  1.00  0.00    +0.284 C 
ATOM     51  C   UNL     1     -11.991 -21.685  10.044  1.00  0.00    +0.284 C 
ATOM     52  N   UNL     1     -12.976 -22.469  10.900  1.00  0.00    -0.329 N 
ATOM     53  H   UNL     1     -12.506 -22.641  11.793  1.00  0.00    +0.348 HD
BRANCH  52  54
ATOM     54  C   UNL     1     -13.289 -23.816  10.308  1.00  0.00    +0.295 C 
BRANCH  54  55
ATOM     55  C   UNL     1     -12.815 -24.998  11.124  1.00  0.00    -0.012 C 
ATOM     56  C   UNL     1     -11.527 -25.393  11.284  1.00  0.00    -0.036 C 
ATOM     57  C   UNL     1     -13.955 -25.777  11.771  1.00  0.00    +0.043 C 
ATOM     58  C   UNL     1     -11.120 -26.576  12.140  1.00  0.00    +0.037 C 
ATOM     59  C   UNL     1     -13.593 -27.190  12.281  1.00  0.00    -0.031 C 
ATOM     60  C   UNL     1     -12.246 -27.118  13.023  1.00  0.00    +0.011 C 
ATOM     61  C   UNL     1     -14.684 -27.674  13.253  1.00  0.00    +0.011 C 
ATOM     62  C   UNL     1     -13.524 -28.187  11.107  1.00  0.00    +0.011 C 
BRANCH  56  63
ATOM     63  C   UNL     1     -10.396 -24.704  10.634  1.00  0.00    -0.022 A 
ATOM     64  C   UNL     1      -9.488 -23.955  11.394  1.00  0.00    +0.010 A 
ATOM     65  C   UNL     1     -10.202 -24.822   9.250  1.00  0.00    +0.010 A 
ATOM     66  C   UNL     1      -8.383 -23.358  10.782  1.00  0.00    +0.021 A 
ATOM     67  C   UNL     1      -9.096 -24.225   8.640  1.00  0.00    +0.021 A 
ATOM     68  C   UNL     1      -8.187 -23.500   9.410  1.00  0.00    +0.041 A 
ATOM     69 Cl   UNL     1      -6.812 -22.791   8.664  1.00  0.00    -0.084 Cl
ENDBRANCH  56  63
ENDBRANCH  54  55
ENDBRANCH  52  54
ENDBRANCH  46  47
ENDBRANCH  38  41
ENDBRANCH   1  37
TORSDOF 17
ENDMDL
MODEL 2
REMARK VINA RESULT:   -10.442      1.988      2.953
REMARK INTER + INTRA:         -25.334
REMARK INTER:                 -21.075
REMARK INTRA:                  -4.259
REMARK UNBOUND:                -4.514
REMARK SMILES CC1(C)CCC(c2ccc(Cl)cc2)=C(C[NH+]2CCN(c3ccc(C(=O)NS(=O)(=O)c4ccc(N[C@H](CC[NH+]5CCOCC5)CSc5ccccc5)c(S(=O)(=O)C(F)(F)F)c4)cc3)CC2)C1
REMARK SMILES IDX 27 1 28 2 29 3 30 4 33 5 52 6 32 7 60 8 31 9 34 10 35 12
REMARK SMILES IDX 36 13 37 14 38 15 39 16 43 17 40 18 42 19 41 20 44 22 45 23
REMARK SMILES IDX 46 24 47 25 51 26 48 27 50 28 49 29 53 30 54 31 55 32 56 33
REMARK SMILES IDX 57 34 58 35 59 36 26 37 24 38 25 39 23 41 22 42 61 43 21 44
REMARK SMILES IDX 62 45 20 46 19 47 18 48 63 49 17 50 64 51 16 52 15 54 14 55
REMARK SMILES IDX 6 56 65 57 5 58 2 59 4 60 1 61 3 62 7 63 8 64 13 65 9 66
REMARK SMILES IDX 12 67 10 68 11 69
REMARK H PARENT 34 11 38 21 26 40 16 53
ROOT
ATOM      1  S   UNL     1     -12.444 -11.217  12.008  1.00  0.00    +0.264 S 
ATOM      2  O   UNL     1     -13.283 -10.745  10.930  1.00  0.00    -0.201 OA
ATOM      3  O   UNL     1     -12.800 -11.008  13.394  1.00  0.00    -0.201 OA
ENDROOT
BRANCH   1   4
ATOM      4  C   UNL     1     -10.842 -10.508  11.738  1.00  0.00    +0.089 A 
ATOM      5  C   UNL     1      -8.288  -9.383  11.187  1.00  0.00    +0.054 A 
ATOM      6  C   UNL     1      -8.596  -9.984  12.433  1.00  0.00    +0.101 A 
ATOM      7  C   UNL     1      -9.348  -9.280  10.276  1.00  0.00    +0.028 A 
ATOM      8  C   UNL     1      -9.838 -10.588  12.694  1.00  0.00    +0.045 A 
ATOM      9  C   UNL     1     -10.608  -9.835  10.541  1.00  0.00    +0.024 A 
BRANCH   5  10
ATOM     10  N   UNL     1      -7.017  -8.822  10.951  1.00  0.00    -0.380 N 
ATOM     11  H   UNL     1      -6.482  -8.948  11.838  1.00  0.00    +0.160 HD
BRANCH  10  12
ATOM     12  C   UNL     1      -6.099  -9.277   9.874  1.00  0.00    +0.095 C 
BRANCH  12  13
ATOM     13  C   UNL     1      -5.054  -8.228   9.464  1.00  0.00    +0.087 C 
BRANCH  13  14
ATOM     14  C   UNL     1      -4.053  -8.653   8.389  1.00  0.00    +0.264 C 
BRANCH  14  15
ATOM     15  N   UNL     1      -2.668  -8.916   8.922  1.00  0.00    -0.331 N 
ATOM     16  C   UNL     1      -2.448  -8.198  10.256  1.00  0.00    +0.291 C 
ATOM     17  C   UNL     1      -1.537  -8.556   7.963  1.00  0.00    +0.291 C 
ATOM     18  C   UNL     1      -1.051  -8.525  10.795  1.00  0.00    +0.221 C 
ATOM     19  C   UNL     1      -0.186  -8.865   8.619  1.00  0.00    +0.221 C 
ATOM     20  O   UNL     1      -0.041  -8.155   9.853  1.00  0.00    -0.370 OA
ATOM     21  H   UNL     1      -2.631  -9.926   9.132  1.00  0.00    +0.348 HD
ENDBRANCH  14  15
ENDBRANCH  13  14
ENDBRANCH  12  13
BRANCH  12  22
ATOM     22  C   UNL     1      -6.791  -9.949   8.667  1.00  0.00    +0.100 C 
BRANCH  22  23
ATOM     23  S   UNL     1      -6.227 -11.671   8.384  1.00  0.00    -0.124 SA
BRANCH  23  24
ATOM     24  C   UNL     1      -6.996 -12.502   9.761  1.00  0.00    +0.007 A 
ATOM     25  C   UNL     1      -8.310 -12.960   9.629  1.00  0.00    +0.015 A 
ATOM     26  C   UNL     1      -6.315 -12.712  10.964  1.00  0.00    +0.015 A 
ATOM     27  C   UNL     1      -8.948 -13.593  10.699  1.00  0.00    +0.001 A 
ATOM     28  C   UNL     1      -6.952 -13.345  12.033  1.00  0.00    +0.001 A 
ATOM     29  C   UNL     1      -8.270 -13.779  11.902  1.00  0.00    +0.000 A 
ENDBRANCH  23  24
ENDBRANCH  22  23
ENDBRANCH  12  22
ENDBRANCH  10  12
ENDBRANCH   5  10
BRANCH   6  30
ATOM     30  S   UNL     1      -7.393  -9.989  13.761  1.00  0.00    +0.278 S 
ATOM     31  O   UNL     1      -6.087 -10.108  13.123  1.00  0.00    -0.214 OA
ATOM     32  O   UNL     1      -7.825 -10.992  14.722  1.00  0.00    -0.214 OA
BRANCH  30  33
ATOM     33  C   UNL     1      -7.606  -8.319  14.447  1.00  0.00    +0.501 C 
ATOM     34  F   UNL     1      -6.448  -7.602  14.458  1.00  0.00    -0.156 F 
ATOM     35  F   UNL     1      -8.500  -7.565  13.727  1.00  0.00    -0.156 F 
ATOM     36  F   UNL     1      -8.072  -8.326  15.727  1.00  0.00    -0.156 F 
ENDBRANCH  30  33
ENDBRANCH   6  30
ENDBRANCH   1   4
BRANCH   1  37
ATOM     37  N   UNL     1     -12.296 -12.852  11.765  1.00  0.00    -0.245 N 
ATOM     38  C   UNL     1     -11.855 -13.777  12.716  1.00  0.00    +0.264 C 
ATOM     39  O   UNL     1     -11.263 -13.455  13.734  1.00  0.00    -0.268 OA
ATOM     40  H   UNL     1     -12.535 -13.117  10.815  1.00  0.00    +0.183 HD
BRANCH  38  41
ATOM     41  C   UNL     1     -12.104 -15.209  12.379  1.00  0.00    +0.040 A 
ATOM     42  C   UNL     1     -12.257 -15.562  11.036  1.00  0.00    +0.016 A 
ATOM     43  C   UNL     1     -12.186 -16.209  13.353  1.00  0.00    +0.016 A 
ATOM     44  C   UNL     1     -12.492 -16.897  10.680  1.00  0.00    +0.027 A 
ATOM     45  C   UNL     1     -12.420 -17.543  12.984  1.00  0.00    +0.027 A 
ATOM     46  C   UNL     1     -12.568 -17.921  11.640  1.00  0.00    +0.037 A 
BRANCH  46  47
ATOM     47  N   UNL     1     -12.801 -19.244  11.226  1.00  0.00    -0.360 N 
ATOM     48  C   UNL     1     -13.856 -20.006  11.930  1.00  0.00    +0.178 C 
ATOM     49  C   UNL     1     -11.554 -20.013  10.989  1.00  0.00    +0.178 C 
ATOM     50  C   UNL     1     -14.179 -21.317  11.181  1.00  0.00    +0.284 C 
ATOM     51  C   UNL     1     -11.857 -21.330  10.243  1.00  0.00    +0.284 C 
ATOM     52  N   UNL     1     -12.911 -22.137  10.988  1.00  0.00    -0.329 N 
ATOM     53  H   UNL     1     -12.526 -22.323  11.919  1.00  0.00    +0.348 HD
BRANCH  52  54
ATOM     54  C   UNL     1     -13.156 -23.475  10.345  1.00  0.00    +0.295 C 
BRANCH  54  55
ATOM     55  C   UNL     1     -12.738 -24.669  11.176  1.00  0.00    -0.012 C 
ATOM     56  C   UNL     1     -11.473 -25.134  11.327  1.00  0.00    -0.036 C 
ATOM     57  C   UNL     1     -13.912 -25.370  11.850  1.00  0.00    +0.043 C 
ATOM     58  C   UNL     1     -11.122 -26.324  12.199  1.00  0.00    +0.037 C 
ATOM     59  C   UNL     1     -13.624 -26.793  12.381  1.00  0.00    -0.031 C 
ATOM     60  C   UNL     1     -12.266 -26.785  13.104  1.00  0.00    +0.011 C 
ATOM     61  C   UNL     1     -14.728 -27.197  13.375  1.00  0.00    +0.011 C 
ATOM     62  C   UNL     1     -13.628 -27.812  11.223  1.00  0.00    +0.011 C 
BRANCH  56  63
ATOM     63  C   UNL     1     -10.313 -24.521  10.651  1.00  0.00    -0.022 A 
ATOM     64  C   UNL     1      -9.388 -23.760  11.377  1.00  0.00    +0.010 A 
ATOM     65  C   UNL     1     -10.111 -24.725   9.278  1.00  0.00    +0.010 A 
ATOM     66  C   UNL     1      -8.257 -23.237  10.744  1.00  0.00    +0.021 A 
ATOM     67  C   UNL     1      -8.979 -24.202   8.648  1.00  0.00    +0.021 A 
ATOM     68  C   UNL     1      -8.054 -23.465   9.385  1.00  0.00    +0.041 A 
ATOM     69 Cl   UNL     1      -6.648 -22.846   8.615  1.00  0.00    -0.084 Cl
ENDBRANCH  56  63
ENDBRANCH  54  55
ENDBRANCH  52  54
ENDBRANCH  46  47
ENDBRANCH  38  41
ENDBRANCH   1  37
TORSDOF 17
ENDMDL
MODEL 3
REMARK VINA RESULT:   -10.222      2.725      3.977
REMARK INTER + INTRA:         -24.895
REMARK INTER:                 -20.464
REMARK INTRA:                  -4.431
REMARK UNBOUND:                -4.514
REMARK SMILES CC1(C)CCC(c2ccc(Cl)cc2)=C(C[NH+]2CCN(c3ccc(C(=O)NS(=O)(=O)c4ccc(N[C@H](CC[NH+]5CCOCC5)CSc5ccccc5)c(S(=O)(=O)C(F)(F)F)c4)cc3)CC2)C1
REMARK SMILES IDX 27 1 28 2 29 3 30 4 33 5 52 6 32 7 60 8 31 9 34 10 35 12
REMARK SMILES IDX 36 13 37 14 38 15 39 16 43 17 40 18 42 19 41 20 44 22 45 23
REMARK SMILES IDX 46 24 47 25 51 26 48 27 50 28 49 29 53 30 54 31 55 32 56 33
REMARK SMILES IDX 57 34 58 35 59 36 26 37 24 38 25 39 23 41 22 42 61 43 21 44
REMARK SMILES IDX 62 45 20 46 19 47 18 48 63 49 17 50 64 51 16 52 15 54 14 55
REMARK SMILES IDX 6 56 65 57 5 58 2 59 4 60 1 61 3 62 7 63 8 64 13 65 9 66
REMARK SMILES IDX 12 67 10 68 11 69
REMARK H PARENT 34 11 38 21 26 40 16 53
ROOT
ATOM      1  S   UNL     1     -11.475  -9.371  10.557  1.00  0.00    +0.264 S 
ATOM      2  O   UNL     1     -12.107  -9.423   9.258  1.00  0.00    -0.201 OA
ATOM      3  O   UNL     1     -11.868  -8.400  11.553  1.00  0.00    -0.201 OA
ENDROOT
BRANCH   1   4
ATOM      4  C   UNL     1      -9.738  -9.182  10.258  1.00  0.00    +0.089 A 
ATOM      5  C   UNL     1      -6.952  -8.981   9.718  1.00  0.00    +0.054 A 
ATOM      6  C   UNL     1      -7.562  -8.304  10.803  1.00  0.00    +0.101 A 
ATOM      7  C   UNL     1      -7.818  -9.673   8.861  1.00  0.00    +0.028 A 
ATOM      8  C   UNL     1      -8.928  -8.440  11.107  1.00  0.00    +0.045 A 
ATOM      9  C   UNL     1      -9.192  -9.778   9.123  1.00  0.00    +0.024 A 
BRANCH   5  10
ATOM     10  N   UNL     1      -5.571  -8.849   9.470  1.00  0.00    -0.380 N 
ATOM     11  H   UNL     1      -5.314  -7.893   9.797  1.00  0.00    +0.160 HD
BRANCH  10  12
ATOM     12  C   UNL     1      -4.538  -9.749  10.047  1.00  0.00    +0.095 C 
BRANCH  12  13
ATOM     13  C   UNL     1      -3.103  -9.401   9.619  1.00  0.00    +0.087 C 
BRANCH  13  14
ATOM     14  C   UNL     1      -2.327  -8.467  10.549  1.00  0.00    +0.264 C 
BRANCH  14  15
ATOM     15  N   UNL     1      -0.831  -8.615  10.443  1.00  0.00    -0.331 N 
ATOM     16  C   UNL     1      -0.139  -7.251  10.509  1.00  0.00    +0.291 C 
ATOM     17  C   UNL     1      -0.350  -9.366   9.205  1.00  0.00    +0.291 C 
ATOM     18  C   UNL     1       1.381  -7.438  10.450  1.00  0.00    +0.221 C 
ATOM     19  C   UNL     1       1.181  -9.446   9.212  1.00  0.00    +0.221 C 
ATOM     20  O   UNL     1       1.763  -8.139   9.263  1.00  0.00    -0.370 OA
ATOM     21  H   UNL     1      -0.535  -9.125  11.291  1.00  0.00    +0.348 HD
ENDBRANCH  14  15
ENDBRANCH  13  14
ENDBRANCH  12  13
BRANCH  12  22
ATOM     22  C   UNL     1      -4.854 -11.258   9.944  1.00  0.00    +0.100 C 
BRANCH  22  23
ATOM     23  S   UNL     1      -5.277 -12.014  11.559  1.00  0.00    -0.124 SA
BRANCH  23  24
ATOM     24  C   UNL     1      -6.876 -12.711  11.191  1.00  0.00    +0.007 A 
ATOM     25  C   UNL     1      -7.809 -12.850  12.224  1.00  0.00    +0.015 A 
ATOM     26  C   UNL     1      -7.220 -13.115   9.898  1.00  0.00    +0.015 A 
ATOM     27  C   UNL     1      -9.061 -13.416  11.972  1.00  0.00    +0.001 A 
ATOM     28  C   UNL     1      -8.472 -13.680   9.646  1.00  0.00    +0.001 A 
ATOM     29  C   UNL     1      -9.389 -13.836  10.684  1.00  0.00    +0.000 A 
ENDBRANCH  23  24
ENDBRANCH  22  23
ENDBRANCH  12  22
ENDBRANCH  10  12
ENDBRANCH   5  10
BRANCH   6  30
ATOM     30  S   UNL     1      -6.601  -7.213  11.850  1.00  0.00    +0.278 S 
ATOM     31  O   UNL     1      -7.554  -6.288  12.452  1.00  0.00    -0.214 OA
ATOM     32  O   UNL     1      -5.507  -6.702  11.039  1.00  0.00    -0.214 OA
BRANCH  30  33
ATOM     33  C   UNL     1      -5.976  -8.372  13.102  1.00  0.00    +0.501 C 
ATOM     34  F   UNL     1      -4.647  -8.637  12.959  1.00  0.00    -0.156 F 
ATOM     35  F   UNL     1      -6.121  -7.894  14.381  1.00  0.00    -0.156 F 
ATOM     36  F   UNL     1      -6.616  -9.574  13.080  1.00  0.00    -0.156 F 
ENDBRANCH  30  33
ENDBRANCH   6  30
ENDBRANCH   1   4
BRANCH   1  37
ATOM     37  N   UNL     1     -11.691 -10.883  11.209  1.00  0.00    -0.245 N 
ATOM     38  C   UNL     1     -12.925 -11.477  11.487  1.00  0.00    +0.264 C 
ATOM     39  O   UNL     1     -13.970 -10.848  11.546  1.00  0.00    -0.268 OA
ATOM     40  H   UNL     1     -10.807 -11.332  11.423  1.00  0.00    +0.183 HD
BRANCH  38  41
ATOM     41  C   UNL     1     -12.881 -12.941  11.767  1.00  0.00    +0.040 A 
ATOM     42  C   UNL     1     -13.222 -13.828  10.743  1.00  0.00    +0.016 A 
ATOM     43  C   UNL     1     -12.506 -13.459  13.011  1.00  0.00    +0.016 A 
ATOM     44  C   UNL     1     -13.191 -15.212  10.968  1.00  0.00    +0.027 A 
ATOM     45  C   UNL     1     -12.478 -14.847  13.224  1.00  0.00    +0.027 A 
ATOM     46  C   UNL     1     -12.809 -15.755  12.206  1.00  0.00    +0.037 A 
BRANCH  46  47
ATOM     47  N   UNL     1     -12.792 -17.152  12.376  1.00  0.00    -0.360 N 
ATOM     48  C   UNL     1     -12.377 -17.677  13.695  1.00  0.00    +0.178 C 
ATOM     49  C   UNL     1     -12.201 -17.874  11.222  1.00  0.00    +0.178 C 
ATOM     50  C   UNL     1     -12.683 -19.186  13.805  1.00  0.00    +0.284 C 
ATOM     51  C   UNL     1     -12.494 -19.388  11.317  1.00  0.00    +0.284 C 
ATOM     52  N   UNL     1     -12.028 -19.940  12.657  1.00  0.00    -0.329 N 
ATOM     53  H   UNL     1     -11.022 -19.757  12.709  1.00  0.00    +0.348 HD
BRANCH  52  54
ATOM     54  C   UNL     1     -12.203 -21.432  12.743  1.00  0.00    +0.295 C 
BRANCH  54  55
ATOM     55  C   UNL     1     -13.268 -22.004  11.834  1.00  0.00    -0.012 C 
ATOM     56  C   UNL     1     -13.054 -22.646  10.658  1.00  0.00    -0.036 C 
ATOM     57  C   UNL     1     -14.684 -21.771  12.348  1.00  0.00    +0.043 C 
ATOM     58  C   UNL     1     -14.171 -23.219   9.808  1.00  0.00    +0.037 C 
ATOM     59  C   UNL     1     -15.812 -21.970  11.311  1.00  0.00    -0.031 C 
ATOM     60  C   UNL     1     -15.529 -23.255  10.512  1.00  0.00    +0.011 C 
ATOM     61  C   UNL     1     -17.158 -22.113  12.044  1.00  0.00    +0.011 C 
ATOM     62  C   UNL     1     -15.907 -20.748  10.374  1.00  0.00    +0.011 C 
BRANCH  56  63
ATOM     63  C   UNL     1     -11.706 -22.847  10.095  1.00  0.00    -0.022 A 
ATOM     64  C   UNL     1     -11.161 -21.912   9.205  1.00  0.00    +0.010 A 
ATOM     65  C   UNL     1     -10.944 -23.962  10.473  1.00  0.00    +0.010 A 
ATOM     66  C   UNL     1      -9.859 -22.073   8.724  1.00  0.00    +0.021 A 
ATOM     67  C   UNL     1      -9.642 -24.121   9.992  1.00  0.00    +0.021 A 
ATOM     68  C   UNL     1      -9.102 -23.173   9.124  1.00  0.00    +0.041 A 
ATOM     69 Cl   UNL     1      -7.491 -23.355   8.556  1.00  0.00    -0.084 Cl
ENDBRANCH  56  63
ENDBRANCH  54  55
ENDBRANCH  52  54
ENDBRANCH  46  47
ENDBRANCH  38  41
ENDBRANCH   1  37
TORSDOF 17
ENDMDL
MODEL 4
REMARK VINA RESULT:   -10.122      2.731      4.431
REMARK INTER + INTRA:         -24.696
REMARK INTER:                 -20.104
REMARK INTRA:                  -4.592
REMARK UNBOUND:                -4.514
REMARK SMILES CC1(C)CCC(c2ccc(Cl)cc2)=C(C[NH+]2CCN(c3ccc(C(=O)NS(=O)(=O)c4ccc(N[C@H](CC[NH+]5CCOCC5)CSc5ccccc5)c(S(=O)(=O)C(F)(F)F)c4)cc3)CC2)C1
REMARK SMILES IDX 27 1 28 2 29 3 30 4 33 5 52 6 32 7 60 8 31 9 34 10 35 12
REMARK SMILES IDX 36 13 37 14 38 15 39 16 43 17 40 18 42 19 41 20 44 22 45 23
REMARK SMILES IDX 46 24 47 25 51 26 48 27 50 28 49 29 53 30 54 31 55 32 56 33
REMARK SMILES IDX 57 34 58 35 59 36 26 37 24 38 25 39 23 41 22 42 61 43 21 44
REMARK SMILES IDX 62 45 20 46 19 47 18 48 63 49 17 50 64 51 16 52 15 54 14 55
REMARK SMILES IDX 6 56 65 57 5 58 2 59 4 60 1 61 3 62 7 63 8 64 13 65 9 66
REMARK SMILES IDX 12 67 10 68 11 69
REMARK H PARENT 34 11 38 21 26 40 16 53
ROOT
ATOM      1  S   UNL     1     -11.892  -9.860  10.796  1.00  0.00    +0.264 S 
ATOM      2  O   UNL     1     -12.532  -9.864   9.501  1.00  0.00    -0.201 OA
ATOM      3  O   UNL     1     -12.368  -9.024  11.875  1.00  0.00    -0.201 OA
ENDROOT
BRANCH   1   4
ATOM      4  C   UNL     1     -10.188  -9.467  10.506  1.00  0.00    +0.089 A 
ATOM      5  C   UNL     1      -7.443  -8.935   9.976  1.00  0.00    +0.054 A 
ATOM      6  C   UNL     1      -8.118  -8.383  11.093  1.00  0.00    +0.101 A 
ATOM      7  C   UNL     1      -8.233  -9.676   9.087  1.00  0.00    +0.028 A 
ATOM      8  C   UNL     1      -9.459  -8.682  11.390  1.00  0.00    +0.045 A 
ATOM      9  C   UNL     1      -9.585  -9.944   9.344  1.00  0.00    +0.024 A 
BRANCH   5  10
ATOM     10  N   UNL     1      -6.087  -8.641   9.734  1.00  0.00    -0.380 N 
ATOM     11  H   UNL     1      -5.937  -7.675  10.098  1.00  0.00    +0.160 HD
BRANCH  10  12
ATOM     12  C   UNL     1      -4.958  -9.441  10.277  1.00  0.00    +0.095 C 
BRANCH  12  13
ATOM     13  C   UNL     1      -3.576  -8.821  10.017  1.00  0.00    +0.087 C 
BRANCH  13  14
ATOM     14  C   UNL     1      -2.601  -9.661   9.191  1.00  0.00    +0.264 C 
BRANCH  14  15
ATOM     15  N   UNL     1      -1.153  -9.318   9.431  1.00  0.00    -0.331 N 
ATOM     16  C   UNL     1      -0.976  -8.586  10.764  1.00  0.00    +0.291 C 
ATOM     17  C   UNL     1      -0.497  -8.506   8.318  1.00  0.00    +0.291 C 
ATOM     18  C   UNL     1       0.510  -8.296  11.002  1.00  0.00    +0.221 C 
ATOM     19  C   UNL     1       0.965  -8.221   8.681  1.00  0.00    +0.221 C 
ATOM     20  O   UNL     1       1.058  -7.526   9.929  1.00  0.00    -0.370 OA
ATOM     21  H   UNL     1      -0.660 -10.220   9.535  1.00  0.00    +0.348 HD
ENDBRANCH  14  15
ENDBRANCH  13  14
ENDBRANCH  12  13
BRANCH  12  22
ATOM     22  C   UNL     1      -5.015 -10.952   9.959  1.00  0.00    +0.100 C 
BRANCH  22  23
ATOM     23  S   UNL     1      -5.210 -11.994  11.455  1.00  0.00    -0.124 SA
BRANCH  23  24
ATOM     24  C   UNL     1      -6.816 -12.708  11.156  1.00  0.00    +0.007 A 
ATOM     25  C   UNL     1      -7.161 -13.079   9.852  1.00  0.00    +0.015 A 
ATOM     26  C   UNL     1      -7.733 -12.912  12.191  1.00  0.00    +0.015 A 
ATOM     27  C   UNL     1      -8.420 -13.618   9.582  1.00  0.00    +0.001 A 
ATOM     28  C   UNL     1      -8.992 -13.451  11.921  1.00  0.00    +0.001 A 
ATOM     29  C   UNL     1      -9.337 -13.798  10.616  1.00  0.00    +0.000 A 
ENDBRANCH  23  24
ENDBRANCH  22  23
ENDBRANCH  12  22
ENDBRANCH  10  12
ENDBRANCH   5  10
BRANCH   6  30
ATOM     30  S   UNL     1      -7.276  -7.245  12.192  1.00  0.00    +0.278 S 
ATOM     31  O   UNL     1      -8.323  -6.501  12.882  1.00  0.00    -0.214 OA
ATOM     32  O   UNL     1      -6.289  -6.536  11.393  1.00  0.00    -0.214 OA
BRANCH  30  33
ATOM     33  C   UNL     1      -6.459  -8.391  13.341  1.00  0.00    +0.501 C 
ATOM     34  F   UNL     1      -6.715  -8.101  14.647  1.00  0.00    -0.156 F 
ATOM     35  F   UNL     1      -6.865  -9.691  13.166  1.00  0.00    -0.156 F 
ATOM     36  F   UNL     1      -5.103  -8.404  13.205  1.00  0.00    -0.156 F 
ENDBRANCH  30  33
ENDBRANCH   6  30
ENDBRANCH   1   4
BRANCH   1  37
ATOM     37  N   UNL     1     -11.942 -11.436  11.315  1.00  0.00    -0.245 N 
ATOM     38  C   UNL     1     -13.084 -12.104  11.769  1.00  0.00    +0.264 C 
ATOM     39  O   UNL     1     -14.107 -11.526  12.100  1.00  0.00    -0.268 OA
ATOM     40  H   UNL     1     -11.025 -11.869  11.301  1.00  0.00    +0.183 HD
BRANCH  38  41
ATOM     41  C   UNL     1     -12.955 -13.586  11.879  1.00  0.00    +0.040 A 
ATOM     42  C   UNL     1     -12.598 -14.135  13.112  1.00  0.00    +0.016 A 
ATOM     43  C   UNL     1     -13.183 -14.444  10.799  1.00  0.00    +0.016 A 
ATOM     44  C   UNL     1     -12.468 -15.524  13.256  1.00  0.00    +0.027 A 
ATOM     45  C   UNL     1     -13.051 -15.833  10.955  1.00  0.00    +0.027 A 
ATOM     46  C   UNL     1     -12.701 -16.407  12.187  1.00  0.00    +0.037 A 
BRANCH  46  47
ATOM     47  N   UNL     1     -12.560 -17.791  12.388  1.00  0.00    -0.360 N 
ATOM     48  C   UNL     1     -11.298 -18.271  12.992  1.00  0.00    +0.178 C 
ATOM     49  C   UNL     1     -13.027 -18.601  11.236  1.00  0.00    +0.178 C 
ATOM     50  C   UNL     1     -11.415 -19.755  13.403  1.00  0.00    +0.284 C 
ATOM     51  C   UNL     1     -13.147 -20.090  11.627  1.00  0.00    +0.284 C 
ATOM     52  N   UNL     1     -11.835 -20.599  12.208  1.00  0.00    -0.329 N 
ATOM     53  H   UNL     1     -11.128 -20.467  11.479  1.00  0.00    +0.348 HD
BRANCH  52  54
ATOM     54  C   UNL     1     -11.883 -22.073  12.504  1.00  0.00    +0.295 C 
BRANCH  54  55
ATOM     55  C   UNL     1     -11.218 -22.954  11.469  1.00  0.00    -0.012 C 
ATOM     56  C   UNL     1     -11.303 -24.306  11.397  1.00  0.00    -0.036 C 
ATOM     57  C   UNL     1     -10.374 -22.172  10.469  1.00  0.00    +0.043 C 
ATOM     58  C   UNL     1     -10.629 -25.125  10.313  1.00  0.00    +0.037 C 
ATOM     59  C   UNL     1      -9.371 -23.009   9.642  1.00  0.00    -0.031 C 
ATOM     60  C   UNL     1     -10.076 -24.288   9.158  1.00  0.00    +0.011 C 
ATOM     61  C   UNL     1      -8.909 -22.190   8.424  1.00  0.00    +0.011 C 
ATOM     62  C   UNL     1      -8.127 -23.350  10.488  1.00  0.00    +0.011 C 
BRANCH  56  63
ATOM     63  C   UNL     1     -12.062 -25.109  12.374  1.00  0.00    -0.022 A 
ATOM     64  C   UNL     1     -11.483 -25.476  13.596  1.00  0.00    +0.010 A 
ATOM     65  C   UNL     1     -13.386 -25.483  12.100  1.00  0.00    +0.010 A 
ATOM     66  C   UNL     1     -12.228 -26.182  14.544  1.00  0.00    +0.021 A 
ATOM     67  C   UNL     1     -14.129 -26.188  13.050  1.00  0.00    +0.021 A 
ATOM     68  C   UNL     1     -13.549 -26.529  14.270  1.00  0.00    +0.041 A 
ATOM     69 Cl   UNL     1     -14.474 -27.370  15.449  1.00  0.00    -0.084 Cl
ENDBRANCH  56  63
ENDBRANCH  54  55
ENDBRANCH  52  54
ENDBRANCH  46  47
ENDBRANCH  38  41
ENDBRANCH   1  37
TORSDOF 17
ENDMDL
MODEL 5
REMARK VINA RESULT:   -10.105      2.305      4.229
REMARK INTER + INTRA:         -24.661
REMARK INTER:                 -20.970
REMARK INTRA:                  -3.692
REMARK UNBOUND:                -4.514
REMARK SMILES CC1(C)CCC(c2ccc(Cl)cc2)=C(C[NH+]2CCN(c3ccc(C(=O)NS(=O)(=O)c4ccc(N[C@H](CC[NH+]5CCOCC5)CSc5ccccc5)c(S(=O)(=O)C(F)(F)F)c4)cc3)CC2)C1
REMARK SMILES IDX 27 1 28 2 29 3 30 4 33 5 52 6 32 7 60 8 31 9 34 10 35 12
REMARK SMILES IDX 36 13 37 14 38 15 39 16 43 17 40 18 42 19 41 20 44 22 45 23
REMARK SMILES IDX 46 24 47 25 51 26 48 27 50 28 49 29 53 30 54 31 55 32 56 33
REMARK SMILES IDX 57 34 58 35 59 36 26 37 24 38 25 39 23 41 22 42 61 43 21 44
REMARK SMILES IDX 62 45 20 46 19 47 18 48 63 49 17 50 64 51 16 52 15 54 14 55
REMARK SMILES IDX 6 56 65 57 5 58 2 59 4 60 1 61 3 62 7 63 8 64 13 65 9 66
REMARK SMILES IDX 12 67 10 68 11 69
REMARK H PARENT 34 11 38 21 26 40 16 53
ROOT
ATOM      1  S   UNL     1     -10.910 -10.114  13.280  1.00  0.00    +0.264 S 
ATOM      2  O   UNL     1     -11.475  -9.615  12.047  1.00  0.00    -0.201 OA
ATOM      3  O   UNL     1     -11.161  -9.465  14.547  1.00  0.00    -0.201 OA
ENDROOT
BRANCH   1   4
ATOM      4  C   UNL     1      -9.155 -10.175  13.032  1.00  0.00    +0.089 A 
ATOM      5  C   UNL     1      -6.337 -10.156  12.639  1.00  0.00    +0.054 A 
ATOM      6  C   UNL     1      -7.148 -11.247  12.240  1.00  0.00    +0.101 A 
ATOM      7  C   UNL     1      -6.990  -9.129  13.334  1.00  0.00    +0.028 A 
ATOM      8  C   UNL     1      -8.547 -11.242  12.384  1.00  0.00    +0.045 A 
ATOM      9  C   UNL     1      -8.378  -9.131  13.528  1.00  0.00    +0.024 A 
BRANCH   5  10
ATOM     10  N   UNL     1      -4.942 -10.183  12.443  1.00  0.00    -0.380 N 
ATOM     11  H   UNL     1      -4.738 -11.101  11.990  1.00  0.00    +0.160 HD
BRANCH  10  12
ATOM     12  C   UNL     1      -4.201  -9.178  11.637  1.00  0.00    +0.095 C 
BRANCH  12  13
ATOM     13  C   UNL     1      -3.269  -8.282  12.467  1.00  0.00    +0.087 C 
BRANCH  13  14
ATOM     14  C   UNL     1      -2.179  -7.537  11.695  1.00  0.00    +0.264 C 
BRANCH  14  15
ATOM     15  N   UNL     1      -1.553  -8.354  10.593  1.00  0.00    -0.331 N 
ATOM     16  C   UNL     1      -0.120  -8.754  10.954  1.00  0.00    +0.291 C 
ATOM     17  C   UNL     1      -1.561  -7.685   9.222  1.00  0.00    +0.291 C 
ATOM     18  C   UNL     1       0.470  -9.624   9.839  1.00  0.00    +0.221 C 
ATOM     19  C   UNL     1      -0.897  -8.610   8.194  1.00  0.00    +0.221 C 
ATOM     20  O   UNL     1       0.441  -8.935   8.586  1.00  0.00    -0.370 OA
ATOM     21  H   UNL     1      -2.092  -9.234  10.550  1.00  0.00    +0.348 HD
ENDBRANCH  14  15
ENDBRANCH  13  14
ENDBRANCH  12  13
BRANCH  12  22
ATOM     22  C   UNL     1      -5.061  -8.388  10.625  1.00  0.00    +0.100 C 
BRANCH  22  23
ATOM     23  S   UNL     1      -5.042  -9.117   8.944  1.00  0.00    -0.124 SA
BRANCH  23  24
ATOM     24  C   UNL     1      -6.788  -9.334   8.657  1.00  0.00    +0.007 A 
ATOM     25  C   UNL     1      -7.214  -9.879   7.441  1.00  0.00    +0.015 A 
ATOM     26  C   UNL     1      -7.739  -8.980   9.618  1.00  0.00    +0.015 A 
ATOM     27  C   UNL     1      -8.575 -10.039   7.177  1.00  0.00    +0.001 A 
ATOM     28  C   UNL     1      -9.101  -9.140   9.354  1.00  0.00    +0.001 A 
ATOM     29  C   UNL     1      -9.519  -9.663   8.132  1.00  0.00    +0.000 A 
ENDBRANCH  23  24
ENDBRANCH  22  23
ENDBRANCH  12  22
ENDBRANCH  10  12
ENDBRANCH   5  10
BRANCH   6  30
ATOM     30  S   UNL     1      -6.409 -12.718  11.533  1.00  0.00    +0.278 S 
ATOM     31  O   UNL     1      -6.287 -13.675  12.627  1.00  0.00    -0.214 OA
ATOM     32  O   UNL     1      -5.222 -12.290  10.808  1.00  0.00    -0.214 OA
BRANCH  30  33
ATOM     33  C   UNL     1      -7.703 -13.251  10.374  1.00  0.00    +0.501 C 
ATOM     34  F   UNL     1      -8.427 -12.210   9.876  1.00  0.00    -0.156 F 
ATOM     35  F   UNL     1      -7.193 -13.902   9.278  1.00  0.00    -0.156 F 
ATOM     36  F   UNL     1      -8.597 -14.112  10.935  1.00  0.00    -0.156 F 
ENDBRANCH  30  33
ENDBRANCH   6  30
ENDBRANCH   1   4
BRANCH   1  37
ATOM     37  N   UNL     1     -11.436 -11.683  13.400  1.00  0.00    -0.245 N 
ATOM     38  C   UNL     1     -12.565 -12.211  12.767  1.00  0.00    +0.264 C 
ATOM     39  O   UNL     1     -13.446 -11.515  12.286  1.00  0.00    -0.268 OA
ATOM     40  H   UNL     1     -10.855 -12.230  14.026  1.00  0.00    +0.183 HD
BRANCH  38  41
ATOM     41  C   UNL     1     -12.660 -13.699  12.765  1.00  0.00    +0.040 A 
ATOM     42  C   UNL     1     -11.481 -14.443  12.664  1.00  0.00    +0.016 A 
ATOM     43  C   UNL     1     -13.879 -14.377  12.865  1.00  0.00    +0.016 A 
ATOM     44  C   UNL     1     -11.529 -15.844  12.659  1.00  0.00    +0.027 A 
ATOM     45  C   UNL     1     -13.913 -15.781  12.861  1.00  0.00    +0.027 A 
ATOM     46  C   UNL     1     -12.741 -16.547  12.768  1.00  0.00    +0.037 A 
BRANCH  46  47
ATOM     47  N   UNL     1     -12.730 -17.954  12.762  1.00  0.00    -0.360 N 
ATOM     48  C   UNL     1     -11.449 -18.631  13.057  1.00  0.00    +0.178 C 
ATOM     49  C   UNL     1     -13.478 -18.540  11.622  1.00  0.00    +0.178 C 
ATOM     50  C   UNL     1     -11.666 -20.141  13.290  1.00  0.00    +0.284 C 
ATOM     51  C   UNL     1     -13.703 -20.053  11.837  1.00  0.00    +0.284 C 
ATOM     52  N   UNL     1     -12.380 -20.759  12.096  1.00  0.00    -0.329 N 
ATOM     53  H   UNL     1     -11.796 -20.588  11.272  1.00  0.00    +0.348 HD
BRANCH  52  54
ATOM     54  C   UNL     1     -12.548 -22.250  12.206  1.00  0.00    +0.295 C 
BRANCH  54  55
ATOM     55  C   UNL     1     -11.602 -23.065  11.351  1.00  0.00    -0.012 C 
ATOM     56  C   UNL     1     -11.447 -24.412  11.393  1.00  0.00    -0.036 C 
ATOM     57  C   UNL     1     -10.769 -22.213  10.401  1.00  0.00    +0.043 C 
ATOM     58  C   UNL     1     -10.496 -25.167  10.485  1.00  0.00    +0.037 C 
ATOM     59  C   UNL     1      -9.531 -22.909   9.791  1.00  0.00    -0.031 C 
ATOM     60  C   UNL     1      -9.933 -24.324   9.339  1.00  0.00    +0.011 C 
ATOM     61  C   UNL     1      -9.045 -22.105   8.572  1.00  0.00    +0.011 C 
ATOM     62  C   UNL     1      -8.381 -22.962  10.817  1.00  0.00    +0.011 C 
BRANCH  56  63
ATOM     63  C   UNL     1     -12.191 -25.271  12.333  1.00  0.00    -0.022 A 
ATOM     64  C   UNL     1     -13.366 -25.917  11.927  1.00  0.00    +0.010 A 
ATOM     65  C   UNL     1     -11.708 -25.474  13.634  1.00  0.00    +0.010 A 
ATOM     66  C   UNL     1     -14.032 -26.780  12.801  1.00  0.00    +0.021 A 
ATOM     67  C   UNL     1     -12.375 -26.338  14.506  1.00  0.00    +0.021 A 
ATOM     68  C   UNL     1     -13.530 -26.993  14.084  1.00  0.00    +0.041 A 
ATOM     69 Cl   UNL     1     -14.333 -28.078  15.147  1.00  0.00    -0.084 Cl
ENDBRANCH  56  63
ENDBRANCH  54  55
ENDBRANCH  52  54
ENDBRANCH  46  47
ENDBRANCH  38  41
ENDBRANCH   1  37
TORSDOF 17
ENDMDL
MODEL 6
REMARK VINA RESULT:   -10.094      3.103      4.708
REMARK INTER + INTRA:         -24.639
REMARK INTER:                 -20.486
REMARK INTRA:                  -4.153
REMARK UNBOUND:                -4.514
REMARK SMILES CC1(C)CCC(c2ccc(Cl)cc2)=C(C[NH+]2CCN(c3ccc(C(=O)NS(=O)(=O)c4ccc(N[C@H](CC[NH+]5CCOCC5)CSc5ccccc5)c(S(=O)(=O)C(F)(F)F)c4)cc3)CC2)C1
REMARK SMILES IDX 27 1 28 2 29 3 30 4 33 5 52 6 32 7 60 8 31 9 34 10 35 12
REMARK SMILES IDX 36 13 37 14 38 15 39 16 43 17 40 18 42 19 41 20 44 22 45 23
REMARK SMILES IDX 46 24 47 25 51 26 48 27 50 28 49 29 53 30 54 31 55 32 56 33
REMARK SMILES IDX 57 34 58 35 59 36 26 37 24 38 25 39 23 41 22 42 61 43 21 44
REMARK SMILES IDX 62 45 20 46 19 47 18 48 63 49 17 50 64 51 16 52 15 54 14 55
REMARK SMILES IDX 6 56 65 57 5 58 2 59 4 60 1 61 3 62 7 63 8 64 13 65 9 66
REMARK SMILES IDX 12 67 10 68 11 69
REMARK H PARENT 34 11 38 21 26 40 16 53
ROOT
ATOM      1  S   UNL     1     -11.357  -9.374  10.579  1.00  0.00    +0.264 S 
ATOM      2  O   UNL     1     -12.010  -9.418   9.291  1.00  0.00    -0.201 OA
ATOM      3  O   UNL     1     -11.752  -8.429  11.599  1.00  0.00    -0.201 OA
ENDROOT
BRANCH   1   4
ATOM      4  C   UNL     1      -9.630  -9.140  10.252  1.00  0.00    +0.089 A 
ATOM      5  C   UNL     1      -6.860  -8.866   9.665  1.00  0.00    +0.054 A 
ATOM      6  C   UNL     1      -7.462  -8.232  10.781  1.00  0.00    +0.101 A 
ATOM      7  C   UNL     1      -7.728  -9.552   8.806  1.00  0.00    +0.028 A 
ATOM      8  C   UNL     1      -8.819  -8.404  11.106  1.00  0.00    +0.045 A 
ATOM      9  C   UNL     1      -9.094  -9.693   9.092  1.00  0.00    +0.024 A 
BRANCH   5  10
ATOM     10  N   UNL     1      -5.487  -8.698   9.395  1.00  0.00    -0.380 N 
ATOM     11  H   UNL     1      -5.231  -7.769   9.793  1.00  0.00    +0.160 HD
BRANCH  10  12
ATOM     12  C   UNL     1      -4.431  -9.631   9.869  1.00  0.00    +0.095 C 
BRANCH  12  13
ATOM     13  C   UNL     1      -3.027  -9.300   9.340  1.00  0.00    +0.087 C 
BRANCH  13  14
ATOM     14  C   UNL     1      -2.439  -7.956   9.772  1.00  0.00    +0.264 C 
BRANCH  14  15
ATOM     15  N   UNL     1      -0.932  -7.935   9.796  1.00  0.00    -0.331 N 
ATOM     16  C   UNL     1      -0.357  -8.229   8.408  1.00  0.00    +0.291 C 
ATOM     17  C   UNL     1      -0.297  -8.877  10.815  1.00  0.00    +0.291 C 
ATOM     18  C   UNL     1       1.173  -8.150   8.454  1.00  0.00    +0.221 C 
ATOM     19  C   UNL     1       1.230  -8.764  10.739  1.00  0.00    +0.221 C 
ATOM     20  O   UNL     1       1.701  -9.062   9.421  1.00  0.00    -0.370 OA
ATOM     21  H   UNL     1      -0.664  -6.961  10.015  1.00  0.00    +0.348 HD
ENDBRANCH  14  15
ENDBRANCH  13  14
ENDBRANCH  12  13
BRANCH  12  22
ATOM     22  C   UNL     1      -4.785 -11.130   9.758  1.00  0.00    +0.100 C 
BRANCH  22  23
ATOM     23  S   UNL     1      -5.154 -11.904  11.378  1.00  0.00    -0.124 SA
BRANCH  23  24
ATOM     24  C   UNL     1      -6.743 -12.638  11.041  1.00  0.00    +0.007 A 
ATOM     25  C   UNL     1      -7.645 -12.818  12.095  1.00  0.00    +0.015 A 
ATOM     26  C   UNL     1      -7.110 -13.032   9.751  1.00  0.00    +0.015 A 
ATOM     27  C   UNL     1      -8.887 -13.414  11.867  1.00  0.00    +0.001 A 
ATOM     28  C   UNL     1      -8.353 -13.628   9.523  1.00  0.00    +0.001 A 
ATOM     29  C   UNL     1      -9.238 -13.824  10.581  1.00  0.00    +0.000 A 
ENDBRANCH  23  24
ENDBRANCH  22  23
ENDBRANCH  12  22
ENDBRANCH  10  12
ENDBRANCH   5  10
BRANCH   6  30
ATOM     30  S   UNL     1      -6.502  -7.150  11.839  1.00  0.00    +0.278 S 
ATOM     31  O   UNL     1      -7.465  -6.280  12.505  1.00  0.00    -0.214 OA
ATOM     32  O   UNL     1      -5.452  -6.572  11.015  1.00  0.00    -0.214 OA
BRANCH  30  33
ATOM     33  C   UNL     1      -5.801  -8.334  13.025  1.00  0.00    +0.501 C 
ATOM     34  F   UNL     1      -4.495  -8.627  12.769  1.00  0.00    -0.156 F 
ATOM     35  F   UNL     1      -5.827  -7.866  14.315  1.00  0.00    -0.156 F 
ATOM     36  F   UNL     1      -6.467  -9.522  13.047  1.00  0.00    -0.156 F 
ENDBRANCH  30  33
ENDBRANCH   6  30
ENDBRANCH   1   4
BRANCH   1  37
ATOM     37  N   UNL     1     -11.526 -10.900  11.210  1.00  0.00    -0.245 N 
ATOM     38  C   UNL     1     -12.741 -11.518  11.522  1.00  0.00    +0.264 C 
ATOM     39  O   UNL     1     -13.792 -10.906  11.632  1.00  0.00    -0.268 OA
ATOM     40  H   UNL     1     -10.629 -11.340  11.382  1.00  0.00    +0.183 HD
BRANCH  38  41
ATOM     41  C   UNL     1     -12.665 -12.987  11.772  1.00  0.00    +0.040 A 
ATOM     42  C   UNL     1     -13.012 -13.859  10.738  1.00  0.00    +0.016 A 
ATOM     43  C   UNL     1     -12.255 -13.522  12.997  1.00  0.00    +0.016 A 
ATOM     44  C   UNL     1     -12.953 -15.246  10.934  1.00  0.00    +0.027 A 
ATOM     45  C   UNL     1     -12.199 -14.913  13.181  1.00  0.00    +0.027 A 
ATOM     46  C   UNL     1     -12.535 -15.807  12.153  1.00  0.00    +0.037 A 
BRANCH  46  47
ATOM     47  N   UNL     1     -12.490 -17.205  12.294  1.00  0.00    -0.360 N 
ATOM     48  C   UNL     1     -11.605 -17.761  13.341  1.00  0.00    +0.178 C 
ATOM     49  C   UNL     1     -12.420 -17.923  10.997  1.00  0.00    +0.178 C 
ATOM     50  C   UNL     1     -11.884 -19.264  13.554  1.00  0.00    +0.284 C 
ATOM     51  C   UNL     1     -12.693 -19.431  11.191  1.00  0.00    +0.284 C 
ATOM     52  N   UNL     1     -11.753 -20.015  12.236  1.00  0.00    -0.329 N 
ATOM     53  H   UNL     1     -10.803 -19.855  11.889  1.00  0.00    +0.348 HD
BRANCH  52  54
ATOM     54  C   UNL     1     -11.920 -21.503  12.376  1.00  0.00    +0.295 C 
BRANCH  54  55
ATOM     55  C   UNL     1     -12.029 -22.259  11.069  1.00  0.00    -0.012 C 
ATOM     56  C   UNL     1     -13.170 -22.750  10.524  1.00  0.00    -0.036 C 
ATOM     57  C   UNL     1     -10.685 -22.464  10.382  1.00  0.00    +0.043 C 
ATOM     58  C   UNL     1     -13.210 -23.477   9.194  1.00  0.00    +0.037 C 
ATOM     59  C   UNL     1     -10.660 -23.540   9.272  1.00  0.00    -0.031 C 
ATOM     60  C   UNL     1     -11.911 -23.372   8.392  1.00  0.00    +0.011 C 
ATOM     61  C   UNL     1      -9.401 -23.350   8.408  1.00  0.00    +0.011 C 
ATOM     62  C   UNL     1     -10.606 -24.953   9.890  1.00  0.00    +0.011 C 
BRANCH  56  63
ATOM     63  C   UNL     1     -14.485 -22.623  11.180  1.00  0.00    -0.022 A 
ATOM     64  C   UNL     1     -14.623 -22.875  12.551  1.00  0.00    +0.010 A 
ATOM     65  C   UNL     1     -15.604 -22.216  10.439  1.00  0.00    +0.010 A 
ATOM     66  C   UNL     1     -15.857 -22.690  13.180  1.00  0.00    +0.021 A 
ATOM     67  C   UNL     1     -16.837 -22.031  11.070  1.00  0.00    +0.021 A 
ATOM     68  C   UNL     1     -16.957 -22.264  12.439  1.00  0.00    +0.041 A 
ATOM     69 Cl   UNL     1     -18.467 -22.008  13.219  1.00  0.00    -0.084 Cl
ENDBRANCH  56  63
ENDBRANCH  54  55
ENDBRANCH  52  54
ENDBRANCH  46  47
ENDBRANCH  38  41
ENDBRANCH   1  37
TORSDOF 17
ENDMDL
MODEL 7
REMARK VINA RESULT:    -9.861      2.462      3.497
REMARK INTER + INTRA:         -24.174
REMARK INTER:                 -20.035
REMARK INTRA:                  -4.140
REMARK UNBOUND:                -4.514
REMARK SMILES CC1(C)CCC(c2ccc(Cl)cc2)=C(C[NH+]2CCN(c3ccc(C(=O)NS(=O)(=O)c4ccc(N[C@H](CC[NH+]5CCOCC5)CSc5ccccc5)c(S(=O)(=O)C(F)(F)F)c4)cc3)CC2)C1
REMARK SMILES IDX 27 1 28 2 29 3 30 4 33 5 52 6 32 7 60 8 31 9 34 10 35 12
REMARK SMILES IDX 36 13 37 14 38 15 39 16 43 17 40 18 42 19 41 20 44 22 45 23
REMARK SMILES IDX 46 24 47 25 51 26 48 27 50 28 49 29 53 30 54 31 55 32 56 33
REMARK SMILES IDX 57 34 58 35 59 36 26 37 24 38 25 39 23 41 22 42 61 43 21 44
REMARK SMILES IDX 62 45 20 46 19 47 18 48 63 49 17 50 64 51 16 52 15 54 14 55
REMARK SMILES IDX 6 56 65 57 5 58 2 59 4 60 1 61 3 62 7 63 8 64 13 65 9 66
REMARK SMILES IDX 12 67 10 68 11 69
REMARK H PARENT 34 11 38 21 26 40 16 53
ROOT
ATOM      1  S   UNL     1     -11.738 -11.561  15.093  1.00  0.00    +0.264 S 
ATOM      2  O   UNL     1     -12.985 -10.846  15.239  1.00  0.00    -0.201 OA
ATOM      3  O   UNL     1     -10.808 -11.697  16.192  1.00  0.00    -0.201 OA
ENDROOT
BRANCH   1   4
ATOM      4  C   UNL     1     -10.883 -10.800  13.739  1.00  0.00    +0.089 A 
ATOM      5  C   UNL     1      -9.416  -9.567  11.637  1.00  0.00    +0.054 A 
ATOM      6  C   UNL     1     -10.833  -9.577  11.665  1.00  0.00    +0.101 A 
ATOM      7  C   UNL     1      -8.777 -10.292  12.651  1.00  0.00    +0.028 A 
ATOM      8  C   UNL     1     -11.564 -10.139  12.726  1.00  0.00    +0.045 A 
ATOM      9  C   UNL     1      -9.494 -10.899  13.692  1.00  0.00    +0.024 A 
BRANCH   5  10
ATOM     10  N   UNL     1      -8.720  -8.960  10.573  1.00  0.00    -0.380 N 
ATOM     11  H   UNL     1      -8.607  -7.959  10.843  1.00  0.00    +0.160 HD
BRANCH  10  12
ATOM     12  C   UNL     1      -7.375  -9.393  10.111  1.00  0.00    +0.095 C 
BRANCH  12  13
ATOM     13  C   UNL     1      -6.266  -8.362  10.373  1.00  0.00    +0.087 C 
BRANCH  13  14
ATOM     14  C   UNL     1      -5.097  -8.829  11.241  1.00  0.00    +0.264 C 
BRANCH  14  15
ATOM     15  N   UNL     1      -3.745  -8.558  10.631  1.00  0.00    -0.331 N 
ATOM     16  C   UNL     1      -3.681  -7.146  10.045  1.00  0.00    +0.291 C 
ATOM     17  C   UNL     1      -3.311  -9.566   9.571  1.00  0.00    +0.291 C 
ATOM     18  C   UNL     1      -2.281  -6.884   9.480  1.00  0.00    +0.221 C 
ATOM     19  C   UNL     1      -1.928  -9.181   9.030  1.00  0.00    +0.221 C 
ATOM     20  O   UNL     1      -1.941  -7.856   8.487  1.00  0.00    -0.370 OA
ATOM     21  H   UNL     1      -3.072  -8.572  11.415  1.00  0.00    +0.348 HD
ENDBRANCH  14  15
ENDBRANCH  13  14
ENDBRANCH  12  13
BRANCH  12  22
ATOM     22  C   UNL     1      -7.332  -9.982   8.683  1.00  0.00    +0.100 C 
BRANCH  22  23
ATOM     23  S   UNL     1      -6.400 -11.557   8.584  1.00  0.00    -0.124 SA
BRANCH  23  24
ATOM     24  C   UNL     1      -7.132 -12.462   9.935  1.00  0.00    +0.007 A 
ATOM     25  C   UNL     1      -8.451 -12.911   9.815  1.00  0.00    +0.015 A 
ATOM     26  C   UNL     1      -6.418 -12.737  11.105  1.00  0.00    +0.015 A 
ATOM     27  C   UNL     1      -9.060 -13.600  10.866  1.00  0.00    +0.001 A 
ATOM     28  C   UNL     1      -7.027 -13.427  12.155  1.00  0.00    +0.001 A 
ATOM     29  C   UNL     1      -8.349 -13.852  12.038  1.00  0.00    +0.000 A 
ENDBRANCH  23  24
ENDBRANCH  22  23
ENDBRANCH  12  22
ENDBRANCH  10  12
ENDBRANCH   5  10
BRANCH   6  30
ATOM     30  S   UNL     1     -11.774  -8.870  10.313  1.00  0.00    +0.278 S 
ATOM     31  O   UNL     1     -11.074  -9.252   9.092  1.00  0.00    -0.214 OA
ATOM     32  O   UNL     1     -11.973  -7.463  10.625  1.00  0.00    -0.214 OA
BRANCH  30  33
ATOM     33  C   UNL     1     -13.341  -9.779  10.450  1.00  0.00    +0.501 C 
ATOM     34  F   UNL     1     -14.228  -9.451   9.470  1.00  0.00    -0.156 F 
ATOM     35  F   UNL     1     -13.171 -11.138  10.353  1.00  0.00    -0.156 F 
ATOM     36  F   UNL     1     -13.976  -9.568  11.636  1.00  0.00    -0.156 F 
ENDBRANCH  30  33
ENDBRANCH   6  30
ENDBRANCH   1   4
BRANCH   1  37
ATOM     37  N   UNL     1     -12.164 -13.088  14.599  1.00  0.00    -0.245 N 
ATOM     38  C   UNL     1     -13.047 -13.386  13.557  1.00  0.00    +0.264 C 
ATOM     39  O   UNL     1     -13.818 -12.567  13.082  1.00  0.00    -0.268 OA
ATOM     40  H   UNL     1     -11.729 -13.806  15.169  1.00  0.00    +0.183 HD
BRANCH  38  41
ATOM     41  C   UNL     1     -13.031 -14.802  13.091  1.00  0.00    +0.040 A 
ATOM     42  C   UNL     1     -14.239 -15.395  12.715  1.00  0.00    +0.016 A 
ATOM     43  C   UNL     1     -11.856 -15.556  13.010  1.00  0.00    +0.016 A 
ATOM     44  C   UNL     1     -14.264 -16.725  12.270  1.00  0.00    +0.027 A 
ATOM     45  C   UNL     1     -11.894 -16.886  12.562  1.00  0.00    +0.027 A 
ATOM     46  C   UNL     1     -13.095 -17.498  12.172  1.00  0.00    +0.037 A 
BRANCH  46  47
ATOM     47  N   UNL     1     -13.178 -18.826  11.716  1.00  0.00    -0.360 N 
ATOM     48  C   UNL     1     -14.215 -19.693  12.316  1.00  0.00    +0.178 C 
ATOM     49  C   UNL     1     -11.853 -19.479  11.568  1.00  0.00    +0.178 C 
ATOM     50  C   UNL     1     -14.360 -21.007  11.519  1.00  0.00    +0.284 C 
ATOM     51  C   UNL     1     -11.979 -20.798  10.776  1.00  0.00    +0.284 C 
ATOM     52  N   UNL     1     -13.015 -21.711  11.416  1.00  0.00    -0.329 N 
ATOM     53  H   UNL     1     -12.691 -21.887  12.372  1.00  0.00    +0.348 HD
BRANCH  52  54
ATOM     54  C   UNL     1     -13.089 -23.048  10.731  1.00  0.00    +0.295 C 
BRANCH  54  55
ATOM     55  C   UNL     1     -12.692 -24.229  11.590  1.00  0.00    -0.012 C 
ATOM     56  C   UNL     1     -11.451 -24.770  11.678  1.00  0.00    -0.036 C 
ATOM     57  C   UNL     1     -13.858 -24.819  12.374  1.00  0.00    +0.043 C 
ATOM     58  C   UNL     1     -11.117 -25.941  12.583  1.00  0.00    +0.037 C 
ATOM     59  C   UNL     1     -13.625 -26.233  12.954  1.00  0.00    -0.031 C 
ATOM     60  C   UNL     1     -12.222 -26.284  13.584  1.00  0.00    +0.011 C 
ATOM     61  C   UNL     1     -14.681 -26.518  14.037  1.00  0.00    +0.011 C 
ATOM     62  C   UNL     1     -13.774 -27.300  11.850  1.00  0.00    +0.011 C 
BRANCH  56  63
ATOM     63  C   UNL     1     -10.305 -24.268  10.898  1.00  0.00    -0.022 A 
ATOM     64  C   UNL     1      -9.368 -23.407  11.485  1.00  0.00    +0.010 A 
ATOM     65  C   UNL     1     -10.126 -24.676   9.568  1.00  0.00    +0.010 A 
ATOM     66  C   UNL     1      -8.249 -22.986  10.761  1.00  0.00    +0.021 A 
ATOM     67  C   UNL     1      -9.007 -24.254   8.846  1.00  0.00    +0.021 A 
ATOM     68  C   UNL     1      -8.070 -23.416   9.447  1.00  0.00    +0.041 A 
ATOM     69 Cl   UNL     1      -6.679 -22.921   8.568  1.00  0.00    -0.084 Cl
ENDBRANCH  56  63
ENDBRANCH  54  55
ENDBRANCH  52  54
ENDBRANCH  46  47
ENDBRANCH  38  41
ENDBRANCH   1  37
TORSDOF 17
ENDMDL
MODEL 8
REMARK VINA RESULT:    -9.853      2.711      5.570
REMARK INTER + INTRA:         -24.159
REMARK INTER:                 -20.120
REMARK INTRA:                  -4.039
REMARK UNBOUND:                -4.514
REMARK SMILES CC1(C)CCC(c2ccc(Cl)cc2)=C(C[NH+]2CCN(c3ccc(C(=O)NS(=O)(=O)c4ccc(N[C@H](CC[NH+]5CCOCC5)CSc5ccccc5)c(S(=O)(=O)C(F)(F)F)c4)cc3)CC2)C1
REMARK SMILES IDX 27 1 28 2 29 3 30 4 33 5 52 6 32 7 60 8 31 9 34 10 35 12
REMARK SMILES IDX 36 13 37 14 38 15 39 16 43 17 40 18 42 19 41 20 44 22 45 23
REMARK SMILES IDX 46 24 47 25 51 26 48 27 50 28 49 29 53 30 54 31 55 32 56 33
REMARK SMILES IDX 57 34 58 35 59 36 26 37 24 38 25 39 23 41 22 42 61 43 21 44
REMARK SMILES IDX 62 45 20 46 19 47 18 48 63 49 17 50 64 51 16 52 15 54 14 55
REMARK SMILES IDX 6 56 65 57 5 58 2 59 4 60 1 61 3 62 7 63 8 64 13 65 9 66
REMARK SMILES IDX 12 67 10 68 11 69
REMARK H PARENT 34 11 38 21 26 40 16 53
ROOT
ATOM      1  S   UNL     1     -11.426  -9.331  10.538  1.00  0.00    +0.264 S 
ATOM      2  O   UNL     1     -12.070  -9.375   9.246  1.00  0.00    -0.201 OA
ATOM      3  O   UNL     1     -11.805  -8.363  11.543  1.00  0.00    -0.201 OA
ENDROOT
BRANCH   1   4
ATOM      4  C   UNL     1      -9.691  -9.147  10.223  1.00  0.00    +0.089 A 
ATOM      5  C   UNL     1      -6.910  -8.954   9.657  1.00  0.00    +0.054 A 
ATOM      6  C   UNL     1      -7.509  -8.270  10.744  1.00  0.00    +0.101 A 
ATOM      7  C   UNL     1      -7.785  -9.649   8.812  1.00  0.00    +0.028 A 
ATOM      8  C   UNL     1      -8.873  -8.401  11.060  1.00  0.00    +0.045 A 
ATOM      9  C   UNL     1      -9.156  -9.750   9.087  1.00  0.00    +0.024 A 
BRANCH   5  10
ATOM     10  N   UNL     1      -5.531  -8.826   9.396  1.00  0.00    -0.380 N 
ATOM     11  H   UNL     1      -5.200  -8.040   9.997  1.00  0.00    +0.160 HD
BRANCH  10  12
ATOM     12  C   UNL     1      -4.545  -9.919   9.606  1.00  0.00    +0.095 C 
BRANCH  12  13
ATOM     13  C   UNL     1      -5.022 -11.006  10.582  1.00  0.00    +0.087 C 
BRANCH  13  14
ATOM     14  C   UNL     1      -5.472 -12.327   9.957  1.00  0.00    +0.264 C 
BRANCH  14  15
ATOM     15  N   UNL     1      -6.706 -12.910  10.599  1.00  0.00    -0.331 N 
ATOM     16  C   UNL     1      -7.752 -13.275   9.543  1.00  0.00    +0.291 C 
ATOM     17  C   UNL     1      -7.349 -12.026  11.663  1.00  0.00    +0.291 C 
ATOM     18  C   UNL     1      -8.971 -13.910  10.221  1.00  0.00    +0.221 C 
ATOM     19  C   UNL     1      -8.589 -12.725  12.234  1.00  0.00    +0.221 C 
ATOM     20  O   UNL     1      -9.529 -13.028  11.197  1.00  0.00    -0.370 OA
ATOM     21  H   UNL     1      -6.410 -13.802  11.026  1.00  0.00    +0.348 HD
ENDBRANCH  14  15
ENDBRANCH  13  14
ENDBRANCH  12  13
BRANCH  12  22
ATOM     22  C   UNL     1      -3.098  -9.450   9.878  1.00  0.00    +0.100 C 
BRANCH  22  23
ATOM     23  S   UNL     1      -2.338  -8.597   8.444  1.00  0.00    -0.124 SA
BRANCH  23  24
ATOM     24  C   UNL     1      -0.614  -8.672   8.889  1.00  0.00    +0.007 A 
ATOM     25  C   UNL     1      -0.245  -9.327  10.068  1.00  0.00    +0.015 A 
ATOM     26  C   UNL     1       0.377  -8.099   8.086  1.00  0.00    +0.015 A 
ATOM     27  C   UNL     1       1.095  -9.381  10.456  1.00  0.00    +0.001 A 
ATOM     28  C   UNL     1       1.717  -8.152   8.474  1.00  0.00    +0.001 A 
ATOM     29  C   UNL     1       2.075  -8.788   9.661  1.00  0.00    +0.000 A 
ENDBRANCH  23  24
ENDBRANCH  22  23
ENDBRANCH  12  22
ENDBRANCH  10  12
ENDBRANCH   5  10
BRANCH   6  30
ATOM     30  S   UNL     1      -6.536  -7.175  11.776  1.00  0.00    +0.278 S 
ATOM     31  O   UNL     1      -7.485  -6.257  12.397  1.00  0.00    -0.214 OA
ATOM     32  O   UNL     1      -5.460  -6.654  10.947  1.00  0.00    -0.214 OA
BRANCH  30  33
ATOM     33  C   UNL     1      -5.881  -8.333  13.014  1.00  0.00    +0.501 C 
ATOM     34  F   UNL     1      -4.591  -8.695  12.767  1.00  0.00    -0.156 F 
ATOM     35  F   UNL     1      -5.879  -7.803  14.281  1.00  0.00    -0.156 F 
ATOM     36  F   UNL     1      -6.600  -9.487  13.095  1.00  0.00    -0.156 F 
ENDBRANCH  30  33
ENDBRANCH   6  30
ENDBRANCH   1   4
BRANCH   1  37
ATOM     37  N   UNL     1     -11.641 -10.845  11.186  1.00  0.00    -0.245 N 
ATOM     38  C   UNL     1     -12.874 -11.463  11.410  1.00  0.00    +0.264 C 
ATOM     39  O   UNL     1     -13.933 -10.856  11.419  1.00  0.00    -0.268 OA
ATOM     40  H   UNL     1     -10.759 -11.275  11.442  1.00  0.00    +0.183 HD
BRANCH  38  41
ATOM     41  C   UNL     1     -12.813 -12.925  11.698  1.00  0.00    +0.040 A 
ATOM     42  C   UNL     1     -13.322 -13.815  10.750  1.00  0.00    +0.016 A 
ATOM     43  C   UNL     1     -12.261 -13.439  12.877  1.00  0.00    +0.016 A 
ATOM     44  C   UNL     1     -13.281 -15.197  10.984  1.00  0.00    +0.027 A 
ATOM     45  C   UNL     1     -12.225 -14.824  13.099  1.00  0.00    +0.027 A 
ATOM     46  C   UNL     1     -12.723 -15.736  12.156  1.00  0.00    +0.037 A 
BRANCH  46  47
ATOM     47  N   UNL     1     -12.705 -17.130  12.338  1.00  0.00    -0.360 N 
ATOM     48  C   UNL     1     -12.247 -17.645  13.646  1.00  0.00    +0.178 C 
ATOM     49  C   UNL     1     -12.158 -17.866  11.171  1.00  0.00    +0.178 C 
ATOM     50  C   UNL     1     -12.553 -19.152  13.782  1.00  0.00    +0.284 C 
ATOM     51  C   UNL     1     -12.452 -19.378  11.291  1.00  0.00    +0.284 C 
ATOM     52  N   UNL     1     -11.942 -19.919  12.619  1.00  0.00    -0.329 N 
ATOM     53  H   UNL     1     -10.934 -19.740  12.633  1.00  0.00    +0.348 HD
BRANCH  52  54
ATOM     54  C   UNL     1     -12.118 -21.409  12.725  1.00  0.00    +0.295 C 
BRANCH  54  55
ATOM     55  C   UNL     1     -13.173 -21.995  11.812  1.00  0.00    -0.012 C 
ATOM     56  C   UNL     1     -12.946 -22.640  10.640  1.00  0.00    -0.036 C 
ATOM     57  C   UNL     1     -14.594 -21.771  12.317  1.00  0.00    +0.043 C 
ATOM     58  C   UNL     1     -14.054 -23.226   9.786  1.00  0.00    +0.037 C 
ATOM     59  C   UNL     1     -15.715 -21.985  11.274  1.00  0.00    -0.031 C 
ATOM     60  C   UNL     1     -15.415 -23.270  10.483  1.00  0.00    +0.011 C 
ATOM     61  C   UNL     1     -17.063 -22.136  12.000  1.00  0.00    +0.011 C 
ATOM     62  C   UNL     1     -15.814 -20.767  10.332  1.00  0.00    +0.011 C 
BRANCH  56  63
ATOM     63  C   UNL     1     -11.593 -22.831  10.085  1.00  0.00    -0.022 A 
ATOM     64  C   UNL     1     -11.065 -21.913   9.168  1.00  0.00    +0.010 A 
ATOM     65  C   UNL     1     -10.810 -23.919  10.499  1.00  0.00    +0.010 A 
ATOM     66  C   UNL     1      -9.759 -22.063   8.695  1.00  0.00    +0.021 A 
ATOM     67  C   UNL     1      -9.504 -24.067  10.025  1.00  0.00    +0.021 A 
ATOM     68  C   UNL     1      -8.982 -23.136   9.130  1.00  0.00    +0.041 A 
ATOM     69 Cl   UNL     1      -7.366 -23.302   8.570  1.00  0.00    -0.084 Cl
ENDBRANCH  56  63
ENDBRANCH  54  55
ENDBRANCH  52  54
ENDBRANCH  46  47
ENDBRANCH  38  41
ENDBRANCH   1  37
TORSDOF 17
ENDMDL
MODEL 9
REMARK VINA RESULT:    -9.822      2.744      5.605
REMARK INTER + INTRA:         -24.096
REMARK INTER:                 -19.929
REMARK INTRA:                  -4.167
REMARK UNBOUND:                -4.514
REMARK SMILES CC1(C)CCC(c2ccc(Cl)cc2)=C(C[NH+]2CCN(c3ccc(C(=O)NS(=O)(=O)c4ccc(N[C@H](CC[NH+]5CCOCC5)CSc5ccccc5)c(S(=O)(=O)C(F)(F)F)c4)cc3)CC2)C1
REMARK SMILES IDX 27 1 28 2 29 3 30 4 33 5 52 6 32 7 60 8 31 9 34 10 35 12
REMARK SMILES IDX 36 13 37 14 38 15 39 16 43 17 40 18 42 19 41 20 44 22 45 23
REMARK SMILES IDX 46 24 47 25 51 26 48 27 50 28 49 29 53 30 54 31 55 32 56 33
REMARK SMILES IDX 57 34 58 35 59 36 26 37 24 38 25 39 23 41 22 42 61 43 21 44
REMARK SMILES IDX 62 45 20 46 19 47 18 48 63 49 17 50 64 51 16 52 15 54 14 55
REMARK SMILES IDX 6 56 65 57 5 58 2 59 4 60 1 61 3 62 7 63 8 64 13 65 9 66
REMARK SMILES IDX 12 67 10 68 11 69
REMARK H PARENT 34 11 38 21 26 40 16 53
ROOT
ATOM      1  S   UNL     1     -12.048  -9.820  10.705  1.00  0.00    +0.264 S 
ATOM      2  O   UNL     1     -12.632  -9.909   9.387  1.00  0.00    -0.201 OA
ATOM      3  O   UNL     1     -12.572  -8.921  11.709  1.00  0.00    -0.201 OA
ENDROOT
BRANCH   1   4
ATOM      4  C   UNL     1     -10.334  -9.436  10.464  1.00  0.00    +0.089 A 
ATOM      5  C   UNL     1      -7.574  -8.917  10.009  1.00  0.00    +0.054 A 
ATOM      6  C   UNL     1      -8.269  -8.386  11.124  1.00  0.00    +0.101 A 
ATOM      7  C   UNL     1      -8.350  -9.628   9.084  1.00  0.00    +0.028 A 
ATOM      8  C   UNL     1      -9.619  -8.680  11.383  1.00  0.00    +0.045 A 
ATOM      9  C   UNL     1      -9.709  -9.890   9.304  1.00  0.00    +0.024 A 
BRANCH   5  10
ATOM     10  N   UNL     1      -6.209  -8.629   9.806  1.00  0.00    -0.380 N 
ATOM     11  H   UNL     1      -5.821  -8.413  10.749  1.00  0.00    +0.160 HD
BRANCH  10  12
ATOM     12  C   UNL     1      -5.245  -9.583   9.197  1.00  0.00    +0.095 C 
BRANCH  12  13
ATOM     13  C   UNL     1      -4.922 -10.793  10.088  1.00  0.00    +0.087 C 
BRANCH  13  14
ATOM     14  C   UNL     1      -5.432 -12.149   9.601  1.00  0.00    +0.264 C 
BRANCH  14  15
ATOM     15  N   UNL     1      -6.556 -12.709  10.435  1.00  0.00    -0.331 N 
ATOM     16  C   UNL     1      -7.772 -13.039   9.567  1.00  0.00    +0.291 C 
ATOM     17  C   UNL     1      -6.991 -11.820  11.597  1.00  0.00    +0.291 C 
ATOM     18  C   UNL     1      -8.876 -13.652  10.434  1.00  0.00    +0.221 C 
ATOM     19  C   UNL     1      -8.135 -12.495  12.362  1.00  0.00    +0.221 C 
ATOM     20  O   UNL     1      -9.242 -12.765  11.495  1.00  0.00    -0.370 OA
ATOM     21  H   UNL     1      -6.215 -13.612  10.803  1.00  0.00    +0.348 HD
ENDBRANCH  14  15
ENDBRANCH  13  14
ENDBRANCH  12  13
BRANCH  12  22
ATOM     22  C   UNL     1      -3.989  -8.935   8.573  1.00  0.00    +0.100 C 
BRANCH  22  23
ATOM     23  S   UNL     1      -3.306  -7.570   9.588  1.00  0.00    -0.124 SA
BRANCH  23  24
ATOM     24  C   UNL     1      -1.696  -8.225   9.984  1.00  0.00    +0.007 A 
ATOM     25  C   UNL     1      -1.035  -9.017   9.040  1.00  0.00    +0.015 A 
ATOM     26  C   UNL     1      -1.077  -7.959  11.209  1.00  0.00    +0.015 A 
ATOM     27  C   UNL     1       0.217  -9.564   9.331  1.00  0.00    +0.001 A 
ATOM     28  C   UNL     1       0.174  -8.507  11.499  1.00  0.00    +0.001 A 
ATOM     29  C   UNL     1       0.818  -9.313  10.563  1.00  0.00    +0.000 A 
ENDBRANCH  23  24
ENDBRANCH  22  23
ENDBRANCH  12  22
ENDBRANCH  10  12
ENDBRANCH   5  10
BRANCH   6  30
ATOM     30  S   UNL     1      -7.442  -7.283  12.269  1.00  0.00    +0.278 S 
ATOM     31  O   UNL     1      -8.500  -6.592  12.998  1.00  0.00    -0.214 OA
ATOM     32  O   UNL     1      -6.473  -6.519  11.498  1.00  0.00    -0.214 OA
BRANCH  30  33
ATOM     33  C   UNL     1      -6.596  -8.464  13.361  1.00  0.00    +0.501 C 
ATOM     34  F   UNL     1      -5.504  -9.032  12.778  1.00  0.00    -0.156 F 
ATOM     35  F   UNL     1      -6.134  -7.878  14.513  1.00  0.00    -0.156 F 
ATOM     36  F   UNL     1      -7.400  -9.488  13.761  1.00  0.00    -0.156 F 
ENDBRANCH  30  33
ENDBRANCH   6  30
ENDBRANCH   1   4
BRANCH   1  37
ATOM     37  N   UNL     1     -12.115 -11.361  11.320  1.00  0.00    -0.245 N 
ATOM     38  C   UNL     1     -13.283 -12.100  11.528  1.00  0.00    +0.264 C 
ATOM     39  O   UNL     1     -14.396 -11.598  11.549  1.00  0.00    -0.268 OA
ATOM     40  H   UNL     1     -11.196 -11.710  11.568  1.00  0.00    +0.183 HD
BRANCH  38  41
ATOM     41  C   UNL     1     -13.081 -13.556  11.784  1.00  0.00    +0.040 A 
ATOM     42  C   UNL     1     -13.995 -14.463  11.242  1.00  0.00    +0.016 A 
ATOM     43  C   UNL     1     -12.011 -14.046  12.540  1.00  0.00    +0.016 A 
ATOM     44  C   UNL     1     -13.838 -15.839  11.460  1.00  0.00    +0.027 A 
ATOM     45  C   UNL     1     -11.864 -15.426  12.750  1.00  0.00    +0.027 A 
ATOM     46  C   UNL     1     -12.766 -16.355  12.208  1.00  0.00    +0.037 A 
BRANCH  46  47
ATOM     47  N   UNL     1     -12.654 -17.745  12.392  1.00  0.00    -0.360 N 
ATOM     48  C   UNL     1     -11.410 -18.258  13.006  1.00  0.00    +0.178 C 
ATOM     49  C   UNL     1     -13.122 -18.530  11.223  1.00  0.00    +0.178 C 
ATOM     50  C   UNL     1     -11.562 -19.744  13.395  1.00  0.00    +0.284 C 
ATOM     51  C   UNL     1     -13.277 -20.022  11.593  1.00  0.00    +0.284 C 
ATOM     52  N   UNL     1     -11.983 -20.564  12.184  1.00  0.00    -0.329 N 
ATOM     53  H   UNL     1     -11.264 -20.436  11.466  1.00  0.00    +0.348 HD
BRANCH  52  54
ATOM     54  C   UNL     1     -12.064 -22.040  12.460  1.00  0.00    +0.295 C 
BRANCH  54  55
ATOM     55  C   UNL     1     -11.303 -22.914  11.486  1.00  0.00    -0.012 C 
ATOM     56  C   UNL     1     -11.317 -24.270  11.451  1.00  0.00    -0.036 C 
ATOM     57  C   UNL     1     -10.449 -22.118  10.508  1.00  0.00    +0.043 C 
ATOM     58  C   UNL     1     -10.548 -25.084  10.428  1.00  0.00    +0.037 C 
ATOM     59  C   UNL     1      -9.364 -22.925   9.758  1.00  0.00    -0.031 C 
ATOM     60  C   UNL     1      -9.979 -24.251   9.278  1.00  0.00    +0.011 C 
ATOM     61  C   UNL     1      -8.881 -22.117   8.540  1.00  0.00    +0.011 C 
ATOM     62  C   UNL     1      -8.150 -23.178  10.675  1.00  0.00    +0.011 C 
BRANCH  56  63
ATOM     63  C   UNL     1     -12.086 -25.084  12.412  1.00  0.00    -0.022 A 
ATOM     64  C   UNL     1     -13.368 -25.545  12.087  1.00  0.00    +0.010 A 
ATOM     65  C   UNL     1     -11.522 -25.431  13.649  1.00  0.00    +0.010 A 
ATOM     66  C   UNL     1     -14.065 -26.369  12.975  1.00  0.00    +0.021 A 
ATOM     67  C   UNL     1     -12.220 -26.256  14.534  1.00  0.00    +0.021 A 
ATOM     68  C   UNL     1     -13.487 -26.727  14.191  1.00  0.00    +0.041 A 
ATOM     69 Cl   UNL     1     -14.332 -27.764  15.268  1.00  0.00    -0.084 Cl
ENDBRANCH  56  63
ENDBRANCH  54  55
ENDBRANCH  52  54
ENDBRANCH  46  47
ENDBRANCH  38  41
ENDBRANCH   1  37
TORSDOF 17
ENDMDL
