MODEL 1
REMARK VINA RESULT:   -13.343      0.000      0.000
REMARK INTER + INTRA:         -19.231
REMARK INTER:                 -18.803
REMARK INTRA:                  -0.428
REMARK UNBOUND:                -0.428
REMARK SMILES Cc1ccc(NC(=O)c2ccc(C[N@H+]3CC[N@@H+](C)CC3)cc2)cc1Nc1nccc(-c2cccnc2)n1
REMARK SMILES IDX 7 1 6 2 8 3 9 5 12 6 11 7 21 8 10 9 22 10 13 11 14 12 16 13
REMARK SMILES IDX 17 14 15 15 19 16 20 17 18 18 5 21 23 22 4 23 24 24 3 25
REMARK SMILES IDX 2 26 1 27 25 28 26 30 27 31 37 32 28 33 30 34 29 35 31 36
REMARK SMILES IDX 36 37 32 38 35 39 33 40 34 41
REMARK H PARENT 6 4 17 19 14 20 25 29
ROOT
ATOM      1  C   UNL     1      15.641  51.881  15.490  1.00  0.00    +0.255 C 
ATOM      2  N   UNL     1      16.488  51.880  14.398  1.00  0.00    -0.322 N 
ATOM      3  O   UNL     1      14.898  52.789  15.845  1.00  0.00    -0.269 OA
ATOM      4  H   UNL     1      17.156  51.128  14.311  1.00  0.00    +0.170 HD
ENDROOT
BRANCH   1   5
ATOM      5  C   UNL     1      15.684  50.660  16.348  1.00  0.00    +0.040 A 
ATOM      6  C   UNL     1      15.622  48.310  17.912  1.00  0.00    +0.006 A 
ATOM      7  C   UNL     1      14.438  49.002  17.622  1.00  0.00    +0.010 A 
ATOM      8  C   UNL     1      16.835  48.799  17.401  1.00  0.00    +0.010 A 
ATOM      9  C   UNL     1      14.472  50.166  16.850  1.00  0.00    +0.014 A 
ATOM     10  C   UNL     1      16.866  49.962  16.619  1.00  0.00    +0.014 A 
BRANCH   6  11
ATOM     11  C   UNL     1      15.584  47.060  18.748  1.00  0.00    +0.299 C 
BRANCH  11  12
ATOM     12  N   UNL     1      15.505  47.337  20.246  1.00  0.00    -0.322 N 
ATOM     13  C   UNL     1      17.957  47.311  20.956  1.00  0.00    +0.324 C 
ATOM     14  N   UNL     1      17.683  46.077  21.815  1.00  0.00    -0.328 N 
ATOM     15  C   UNL     1      16.676  48.166  20.765  1.00  0.00    +0.324 C 
ATOM     16  C   UNL     1      16.508  45.243  21.303  1.00  0.00    +0.324 C 
ATOM     17  C   UNL     1      15.242  46.113  21.124  1.00  0.00    +0.324 C 
ATOM     18  C   UNL     1      18.932  45.229  21.977  1.00  0.00    +0.333 C 
ATOM     19  H   UNL     1      17.461  46.392  22.773  1.00  0.00    +0.348 HD
ATOM     20  H   UNL     1      14.665  47.930  20.338  1.00  0.00    +0.348 HD
ENDBRANCH  11  12
ENDBRANCH   6  11
ENDBRANCH   1   5
BRANCH   2  21
ATOM     21  C   UNL     1      16.591  52.876  13.400  1.00  0.00    +0.043 A 
ATOM     22  C   UNL     1      15.710  53.951  13.271  1.00  0.00    +0.052 A 
ATOM     23  C   UNL     1      17.630  52.743  12.475  1.00  0.00    +0.026 A 
ATOM     24  C   UNL     1      15.857  54.904  12.244  1.00  0.00    +0.046 A 
ATOM     25  C   UNL     1      17.792  53.677  11.452  1.00  0.00    +0.008 A 
ATOM     26  C   UNL     1      16.921  54.769  11.332  1.00  0.00    -0.027 A 
ATOM     27  C   UNL     1      17.153  55.745  10.210  1.00  0.00    +0.046 C 
BRANCH  24  28
ATOM     28  N   UNL     1      14.881  55.913  12.118  1.00  0.00    -0.324 N 
ATOM     29  H   UNL     1      14.394  55.935  11.230  1.00  0.00    +0.170 HD
BRANCH  28  30
ATOM     30  C   UNL     1      15.034  57.251  12.503  1.00  0.00    +0.227 A 
ATOM     31  N   UNL     1      16.206  57.564  13.071  1.00  0.00    -0.221 NA
ATOM     32  N   UNL     1      14.039  58.133  12.336  1.00  0.00    -0.213 NA
ATOM     33  C   UNL     1      16.374  58.842  13.452  1.00  0.00    +0.117 A 
ATOM     34  C   UNL     1      14.226  59.411  12.727  1.00  0.00    +0.077 A 
ATOM     35  C   UNL     1      15.413  59.813  13.303  1.00  0.00    +0.049 A 
BRANCH  34  36
ATOM     36  C   UNL     1      13.077  60.310  12.506  1.00  0.00    +0.019 A 
ATOM     37  C   UNL     1      11.939  59.872  11.822  1.00  0.00    +0.121 A 
ATOM     38  C   UNL     1      13.039  61.642  12.947  1.00  0.00    +0.013 A 
ATOM     39  N   UNL     1      10.828  60.616  11.581  1.00  0.00    -0.264 NA
ATOM     40  C   UNL     1      11.917  62.438  12.711  1.00  0.00    +0.021 A 
ATOM     41  C   UNL     1      10.846  61.885  12.032  1.00  0.00    +0.111 A 
ENDBRANCH  34  36
ENDBRANCH  28  30
ENDBRANCH  24  28
ENDBRANCH   2  21
TORSDOF 7
ENDMDL
MODEL 2
REMARK VINA RESULT:   -11.619      1.239      2.238
REMARK INTER + INTRA:         -16.802
REMARK INTER:                 -17.681
REMARK INTRA:                   0.880
REMARK UNBOUND:                -0.428
REMARK SMILES Cc1ccc(NC(=O)c2ccc(C[N@H+]3CC[N@@H+](C)CC3)cc2)cc1Nc1nccc(-c2cccnc2)n1
REMARK SMILES IDX 7 1 6 2 8 3 9 5 12 6 11 7 21 8 10 9 22 10 13 11 14 12 16 13
REMARK SMILES IDX 17 14 15 15 19 16 20 17 18 18 5 21 23 22 4 23 24 24 3 25
REMARK SMILES IDX 2 26 1 27 25 28 26 30 27 31 37 32 28 33 30 34 29 35 31 36
REMARK SMILES IDX 36 37 32 38 35 39 33 40 34 41
REMARK H PARENT 6 4 17 19 14 20 25 29
ROOT
ATOM      1  C   UNL     1      15.821  51.786  15.453  1.00  0.00    +0.255 C 
ATOM      2  N   UNL     1      16.686  51.883  14.380  1.00  0.00    -0.322 N 
ATOM      3  O   UNL     1      14.981  52.608  15.800  1.00  0.00    -0.269 OA
ATOM      4  H   UNL     1      17.429  51.205  14.300  1.00  0.00    +0.170 HD
ENDROOT
BRANCH   1   5
ATOM      5  C   UNL     1      15.972  50.566  16.302  1.00  0.00    +0.040 A 
ATOM      6  C   UNL     1      16.167  48.182  17.802  1.00  0.00    +0.006 A 
ATOM      7  C   UNL     1      14.996  48.482  17.092  1.00  0.00    +0.010 A 
ATOM      8  C   UNL     1      17.244  49.082  17.743  1.00  0.00    +0.010 A 
ATOM      9  C   UNL     1      14.902  49.663  16.352  1.00  0.00    +0.014 A 
ATOM     10  C   UNL     1      17.151  50.263  16.993  1.00  0.00    +0.014 A 
BRANCH   6  11
ATOM     11  C   UNL     1      16.265  46.913  18.602  1.00  0.00    +0.299 C 
BRANCH  11  12
ATOM     12  N   UNL     1      15.743  47.055  20.028  1.00  0.00    -0.322 N 
ATOM     13  C   UNL     1      13.232  47.355  19.685  1.00  0.00    +0.324 C 
ATOM     14  N   UNL     1      13.334  48.767  20.260  1.00  0.00    -0.328 N 
ATOM     15  C   UNL     1      14.361  46.439  20.225  1.00  0.00    +0.324 C 
ATOM     16  C   UNL     1      14.717  49.390  20.070  1.00  0.00    +0.324 C 
ATOM     17  C   UNL     1      15.827  48.462  20.618  1.00  0.00    +0.324 C 
ATOM     18  C   UNL     1      12.243  49.668  19.708  1.00  0.00    +0.333 C 
ATOM     19  H   UNL     1      13.139  48.720  21.273  1.00  0.00    +0.348 HD
ATOM     20  H   UNL     1      16.399  46.481  20.583  1.00  0.00    +0.348 HD
ENDBRANCH  11  12
ENDBRANCH   6  11
ENDBRANCH   1   5
BRANCH   2  21
ATOM     21  C   UNL     1      16.706  52.895  13.392  1.00  0.00    +0.043 A 
ATOM     22  C   UNL     1      15.797  53.953  13.335  1.00  0.00    +0.052 A 
ATOM     23  C   UNL     1      17.686  52.797  12.402  1.00  0.00    +0.026 A 
ATOM     24  C   UNL     1      15.859  54.923  12.316  1.00  0.00    +0.046 A 
ATOM     25  C   UNL     1      17.765  53.749  11.385  1.00  0.00    +0.008 A 
ATOM     26  C   UNL     1      16.866  54.824  11.337  1.00  0.00    -0.027 A 
ATOM     27  C   UNL     1      17.007  55.820  10.217  1.00  0.00    +0.046 C 
BRANCH  24  28
ATOM     28  N   UNL     1      14.857  55.912  12.266  1.00  0.00    -0.324 N 
ATOM     29  H   UNL     1      14.276  55.899  11.436  1.00  0.00    +0.170 HD
BRANCH  28  30
ATOM     30  C   UNL     1      15.026  57.264  12.592  1.00  0.00    +0.227 A 
ATOM     31  N   UNL     1      16.218  57.596  13.104  1.00  0.00    -0.221 NA
ATOM     32  N   UNL     1      14.027  58.142  12.425  1.00  0.00    -0.213 NA
ATOM     33  C   UNL     1      16.402  58.887  13.427  1.00  0.00    +0.117 A 
ATOM     34  C   UNL     1      14.231  59.435  12.757  1.00  0.00    +0.077 A 
ATOM     35  C   UNL     1      15.438  59.855  13.273  1.00  0.00    +0.049 A 
BRANCH  34  36
ATOM     36  C   UNL     1      13.077  60.328  12.543  1.00  0.00    +0.019 A 
ATOM     37  C   UNL     1      13.063  61.627  13.062  1.00  0.00    +0.121 A 
ATOM     38  C   UNL     1      11.930  59.954  11.826  1.00  0.00    +0.013 A 
ATOM     39  N   UNL     1      12.057  62.527  12.909  1.00  0.00    -0.264 NA
ATOM     40  C   UNL     1      10.873  60.850  11.655  1.00  0.00    +0.021 A 
ATOM     41  C   UNL     1      10.984  62.114  12.208  1.00  0.00    +0.111 A 
ENDBRANCH  34  36
ENDBRANCH  28  30
ENDBRANCH  24  28
ENDBRANCH   2  21
TORSDOF 7
ENDMDL
